 Entering Gaussian System, Link 0=g16
 Input=input.com
 Output=input.log
 Initial command:
 /share/apps/g16.b01_avx2/g16/l1.exe "/scratch/Gau-651065.inp" -scrdir="/scratch/"
 Entering Link 1 = /share/apps/g16.b01_avx2/g16/l1.exe PID=    651067.
  
 Copyright (c) 1988-2017, Gaussian, Inc.  All Rights Reserved.
  
 This is part of the Gaussian(R) 16 program.  It is based on
 the Gaussian(R) 09 system (copyright 2009, Gaussian, Inc.),
 the Gaussian(R) 03 system (copyright 2003, Gaussian, Inc.),
 the Gaussian(R) 98 system (copyright 1998, Gaussian, Inc.),
 the Gaussian(R) 94 system (copyright 1995, Gaussian, Inc.),
 the Gaussian 92(TM) system (copyright 1992, Gaussian, Inc.),
 the Gaussian 90(TM) system (copyright 1990, Gaussian, Inc.),
 the Gaussian 88(TM) system (copyright 1988, Gaussian, Inc.),
 the Gaussian 86(TM) system (copyright 1986, Carnegie Mellon
 University), and the Gaussian 82(TM) system (copyright 1983,
 Carnegie Mellon University). Gaussian is a federally registered
 trademark of Gaussian, Inc.
  
 This software contains proprietary and confidential information,
 including trade secrets, belonging to Gaussian, Inc.
  
 This software is provided under written license and may be
 used, copied, transmitted, or stored only in accord with that
 written license.
  
 The following legend is applicable only to US Government
 contracts under FAR:
  
                    RESTRICTED RIGHTS LEGEND
  
 Use, reproduction and disclosure by the US Government is
 subject to restrictions as set forth in subparagraphs (a)
 and (c) of the Commercial Computer Software - Restricted
 Rights clause in FAR 52.227-19.
  
 Gaussian, Inc.
 340 Quinnipiac St., Bldg. 40, Wallingford CT 06492
  
  
 ---------------------------------------------------------------
 Warning -- This program may not be used in any manner that
 competes with the business of Gaussian, Inc. or will provide
 assistance to any competitor of Gaussian, Inc.  The licensee
 of this program is prohibited from giving any competitor of
 Gaussian, Inc. access to this program.  By using this program,
 the user acknowledges that Gaussian, Inc. is engaged in the
 business of creating and licensing software in the field of
 computational chemistry and represents and warrants to the
 licensee that it is not a competitor of Gaussian, Inc. and that
 it will not use this program in any manner prohibited above.
 ---------------------------------------------------------------
  

 Cite this work as:
 Gaussian 16, Revision B.01,
 M. J. Frisch, G. W. Trucks, H. B. Schlegel, G. E. Scuseria, 
 M. A. Robb, J. R. Cheeseman, G. Scalmani, V. Barone, 
 G. A. Petersson, H. Nakatsuji, X. Li, M. Caricato, A. V. Marenich, 
 J. Bloino, B. G. Janesko, R. Gomperts, B. Mennucci, H. P. Hratchian, 
 J. V. Ortiz, A. F. Izmaylov, J. L. Sonnenberg, D. Williams-Young, 
 F. Ding, F. Lipparini, F. Egidi, J. Goings, B. Peng, A. Petrone, 
 T. Henderson, D. Ranasinghe, V. G. Zakrzewski, J. Gao, N. Rega, 
 G. Zheng, W. Liang, M. Hada, M. Ehara, K. Toyota, R. Fukuda, 
 J. Hasegawa, M. Ishida, T. Nakajima, Y. Honda, O. Kitao, H. Nakai, 
 T. Vreven, K. Throssell, J. A. Montgomery, Jr., J. E. Peralta, 
 F. Ogliaro, M. J. Bearpark, J. J. Heyd, E. N. Brothers, K. N. Kudin, 
 V. N. Staroverov, T. A. Keith, R. Kobayashi, J. Normand, 
 K. Raghavachari, A. P. Rendell, J. C. Burant, S. S. Iyengar, 
 J. Tomasi, M. Cossi, J. M. Millam, M. Klene, C. Adamo, R. Cammi, 
 J. W. Ochterski, R. L. Martin, K. Morokuma, O. Farkas, 
 J. B. Foresman, and D. J. Fox, Gaussian, Inc., Wallingford CT, 2016.
 
 ******************************************
 Gaussian 16:  ES64L-G16RevB.01 20-Dec-2017
                31-Jan-2022 
 ******************************************
 %nproc=24
 Will use up to   24 processors via shared memory.
 %mem=64GB
 ----------------------------------------------------------------------
 #P PBE1PBE/6-31+G(d,p) opt int=(grid=99590) freq EmpiricalDispersion=G
 D3
 ----------------------------------------------------------------------
 1/18=20,19=15,26=5,38=1/1,3;
 2/9=110,12=2,17=6,18=5,40=1/2;
 3/5=1,6=6,7=111,11=2,25=1,30=1,71=1,74=-13,75=99590,124=31/1,2,3;
 4//1;
 5/5=2,38=5/2;
 6/7=2,8=2,9=2,10=2,28=1/1;
 7//1,2,3,16;
 1/18=20,19=15,26=5/3(2);
 2/9=110/2;
 99//99;
 2/9=110/2;
 3/5=1,6=6,7=111,11=2,25=1,30=1,71=1,74=-13,75=99590,124=31/1,2,3;
 4/5=5,16=3,69=1/1;
 5/5=2,38=5/2;
 7//1,2,3,16;
 1/18=20,19=15,26=5/3(-5);
 2/9=110/2;
 6/7=2,8=2,9=2,10=2,19=2,28=1/1;
 99/9=1/99;
 Leave Link    1 at Mon Jan 31 11:25:44 2022, MaxMem=  8589934592 cpu:               0.5 elap:               0.0
 (Enter /share/apps/g16.b01_avx2/g16/l101.exe)
 -------
 solv sp
 -------
 Symbolic Z-matrix:
 Charge =  0 Multiplicity = 1
 C                     5.49686  -0.63242   0.05162 
 N                     4.28328   0.12352  -0.20776 
 H                     4.4352    1.02458  -0.65405 
 C                     3.06986  -0.25698   0.24818 
 O                     2.87405  -1.31097   0.86377 
 C                     1.91937   0.72552  -0.03935 
 N                     0.69306   0.01684   0.2846 
 H                     0.8327   -0.85564   0.78833 
 C                     6.66662   0.33647  -0.19919 
 O                     6.48674   1.43789  -0.73104 
 N                     7.882    -0.10909   0.18914 
 H                     8.02254  -1.04265   0.56685 
 C                     9.10524   0.63361  -0.05807 
 C                     10.25534  -0.38703   0.03639 
 O                     10.0777  -1.50436   0.52518 
 N                     11.45256   0.04961  -0.43629 
 H                     11.49975   0.97615  -0.83762 
 H                     5.5023   -0.94578   1.10314 
 H                     9.06228   1.05236  -1.07149 
 C                    -1.68008  -0.55777   0.16465 
 N                    -2.89743   0.1414   -0.20904 
 H                    -2.74818   0.97742  -0.76849 
 C                    -4.11423  -0.19075   0.27647 
 O                    -4.30832  -1.16017   1.01847 
 C                    -5.26693   0.73868  -0.14454 
 N                    -6.49555   0.06164   0.23053 
 H                    -6.36751  -0.74252   0.8391 
 C                    -7.6972    0.36692  -0.31147 
 O                    -7.86193   1.29705  -1.10899 
 C                    -0.5165    0.38662  -0.18998 
 O                    -0.69837   1.40098  -0.87304 
 H                    -1.69035  -0.73428   1.2475 
 H                    -5.25325   0.86992  -1.23372 
 C                     12.66571  -0.75474  -0.38841 
 H                     12.41316  -1.70971   0.07548 
 H                     13.05365  -0.93963  -1.39678 
 H                     13.44144  -0.2611    0.2085 
 C                    -8.86045  -0.54253   0.1188 
 H                    -8.87223  -0.63284   1.21239 
 H                    -9.95151   0.89203  -0.94453 
 C                    -11.29923  -0.19715   0.21989 
 C                    -12.46829   0.6275   -0.30007 
 H                    -12.17623   1.38511  -1.03403 
 H                    -13.19948  -0.04922  -0.75335 
 H                    -12.95517   1.1162    0.54961 
 O                    -11.45163  -1.08648   1.05953 
 N                    -10.08242   0.11196  -0.30882 
 C                    -8.7157   -1.9552   -0.48531 
 H                    -8.64948  -1.90074  -1.57731 
 H                    -7.82151  -2.46193  -0.10564 
 H                    -9.59177  -2.54748  -0.20913 
 C                    -5.14092   2.12473   0.52027 
 H                    -5.10025   2.02566   1.61024 
 H                    -4.23868   2.64687   0.18335 
 H                    -6.01025   2.72945   0.24954 
 C                    -1.54513  -1.91478  -0.55533 
 H                    -1.48114  -1.77047  -1.6391 
 H                    -0.65205  -2.45459  -0.22216 
 H                    -2.42129  -2.52739  -0.32811 
 C                     2.0703    2.02707   0.77365 
 H                     2.12357   1.80721   1.8452 
 H                     2.97451   2.57391   0.48467 
 H                     1.20597   2.66871   0.58404 
 C                     5.6007   -1.88778  -0.83806 
 H                     5.64231  -1.60726  -1.89587 
 H                     6.49443  -2.47362  -0.59719 
 H                     4.72308  -2.51709  -0.67031 
 C                     9.29473   1.78739   0.94782 
 H                     8.42834   2.45203   0.89799 
 H                     9.38772   1.3973    1.96668 
 H                     10.19082   2.37484   0.71806 
 H                     1.9118    0.97708  -1.1072 
 
 ITRead=  0  0  0  0  0  0  0  0  0  0  0  0  0  0  0  0  0  0  0  0
 ITRead=  0  0  0  0  0  0  0  0  0  0  0  0  0  0  0  0  0  0  0  0
 ITRead=  0  0  0  0  0  0  0  0  0  0  0  0  0  0  0  0  0  0  0  0
 ITRead=  0  0  0  0  0  0  0  0  0  0  0  0
 MicOpt= -1 -1 -1 -1 -1 -1 -1 -1 -1 -1 -1 -1 -1 -1 -1 -1 -1 -1 -1 -1
 MicOpt= -1 -1 -1 -1 -1 -1 -1 -1 -1 -1 -1 -1 -1 -1 -1 -1 -1 -1 -1 -1
 MicOpt= -1 -1 -1 -1 -1 -1 -1 -1 -1 -1 -1 -1 -1 -1 -1 -1 -1 -1 -1 -1
 MicOpt= -1 -1 -1 -1 -1 -1 -1 -1 -1 -1 -1 -1
 NAtoms=     72 NQM=       72 NQMF=       0 NMMI=      0 NMMIF=      0
                NMic=       0 NMicF=      0.
                    Isotopes and Nuclear Properties:
 (Nuclear quadrupole moments (NQMom) in fm**2, nuclear magnetic moments (NMagM)
  in nuclear magnetons)

  Atom         1           2           3           4           5           6           7           8           9          10
 IAtWgt=          12          14           1          12          16          12          14           1          12          16
 AtmWgt=  12.0000000  14.0030740   1.0078250  12.0000000  15.9949146  12.0000000  14.0030740   1.0078250  12.0000000  15.9949146
 NucSpn=           0           2           1           0           0           0           2           1           0           0
 AtZEff=  -0.0000000  -0.0000000  -0.0000000  -0.0000000  -0.0000000  -0.0000000  -0.0000000  -0.0000000  -0.0000000  -0.0000000
 NQMom=    0.0000000   2.0440000   0.0000000   0.0000000   0.0000000   0.0000000   2.0440000   0.0000000   0.0000000   0.0000000
 NMagM=    0.0000000   0.4037610   2.7928460   0.0000000   0.0000000   0.0000000   0.4037610   2.7928460   0.0000000   0.0000000
 AtZNuc=   6.0000000   7.0000000   1.0000000   6.0000000   8.0000000   6.0000000   7.0000000   1.0000000   6.0000000   8.0000000

  Atom        11          12          13          14          15          16          17          18          19          20
 IAtWgt=          14           1          12          12          16          14           1           1           1          12
 AtmWgt=  14.0030740   1.0078250  12.0000000  12.0000000  15.9949146  14.0030740   1.0078250   1.0078250   1.0078250  12.0000000
 NucSpn=           2           1           0           0           0           2           1           1           1           0
 AtZEff=  -0.0000000  -0.0000000  -0.0000000  -0.0000000  -0.0000000  -0.0000000  -0.0000000  -0.0000000  -0.0000000  -0.0000000
 NQMom=    2.0440000   0.0000000   0.0000000   0.0000000   0.0000000   2.0440000   0.0000000   0.0000000   0.0000000   0.0000000
 NMagM=    0.4037610   2.7928460   0.0000000   0.0000000   0.0000000   0.4037610   2.7928460   2.7928460   2.7928460   0.0000000
 AtZNuc=   7.0000000   1.0000000   6.0000000   6.0000000   8.0000000   7.0000000   1.0000000   1.0000000   1.0000000   6.0000000

  Atom        21          22          23          24          25          26          27          28          29          30
 IAtWgt=          14           1          12          16          12          14           1          12          16          12
 AtmWgt=  14.0030740   1.0078250  12.0000000  15.9949146  12.0000000  14.0030740   1.0078250  12.0000000  15.9949146  12.0000000
 NucSpn=           2           1           0           0           0           2           1           0           0           0
 AtZEff=  -0.0000000  -0.0000000  -0.0000000  -0.0000000  -0.0000000  -0.0000000  -0.0000000  -0.0000000  -0.0000000  -0.0000000
 NQMom=    2.0440000   0.0000000   0.0000000   0.0000000   0.0000000   2.0440000   0.0000000   0.0000000   0.0000000   0.0000000
 NMagM=    0.4037610   2.7928460   0.0000000   0.0000000   0.0000000   0.4037610   2.7928460   0.0000000   0.0000000   0.0000000
 AtZNuc=   7.0000000   1.0000000   6.0000000   8.0000000   6.0000000   7.0000000   1.0000000   6.0000000   8.0000000   6.0000000

  Atom        31          32          33          34          35          36          37          38          39          40
 IAtWgt=          16           1           1          12           1           1           1          12           1           1
 AtmWgt=  15.9949146   1.0078250   1.0078250  12.0000000   1.0078250   1.0078250   1.0078250  12.0000000   1.0078250   1.0078250
 NucSpn=           0           1           1           0           1           1           1           0           1           1
 AtZEff=  -0.0000000  -0.0000000  -0.0000000  -0.0000000  -0.0000000  -0.0000000  -0.0000000  -0.0000000  -0.0000000  -0.0000000
 NQMom=    0.0000000   0.0000000   0.0000000   0.0000000   0.0000000   0.0000000   0.0000000   0.0000000   0.0000000   0.0000000
 NMagM=    0.0000000   2.7928460   2.7928460   0.0000000   2.7928460   2.7928460   2.7928460   0.0000000   2.7928460   2.7928460
 AtZNuc=   8.0000000   1.0000000   1.0000000   6.0000000   1.0000000   1.0000000   1.0000000   6.0000000   1.0000000   1.0000000

  Atom        41          42          43          44          45          46          47          48          49          50
 IAtWgt=          12          12           1           1           1          16          14          12           1           1
 AtmWgt=  12.0000000  12.0000000   1.0078250   1.0078250   1.0078250  15.9949146  14.0030740  12.0000000   1.0078250   1.0078250
 NucSpn=           0           0           1           1           1           0           2           0           1           1
 AtZEff=  -0.0000000  -0.0000000  -0.0000000  -0.0000000  -0.0000000  -0.0000000  -0.0000000  -0.0000000  -0.0000000  -0.0000000
 NQMom=    0.0000000   0.0000000   0.0000000   0.0000000   0.0000000   0.0000000   2.0440000   0.0000000   0.0000000   0.0000000
 NMagM=    0.0000000   0.0000000   2.7928460   2.7928460   2.7928460   0.0000000   0.4037610   0.0000000   2.7928460   2.7928460
 AtZNuc=   6.0000000   6.0000000   1.0000000   1.0000000   1.0000000   8.0000000   7.0000000   6.0000000   1.0000000   1.0000000

  Atom        51          52          53          54          55          56          57          58          59          60
 IAtWgt=           1          12           1           1           1          12           1           1           1          12
 AtmWgt=   1.0078250  12.0000000   1.0078250   1.0078250   1.0078250  12.0000000   1.0078250   1.0078250   1.0078250  12.0000000
 NucSpn=           1           0           1           1           1           0           1           1           1           0
 AtZEff=  -0.0000000  -0.0000000  -0.0000000  -0.0000000  -0.0000000  -0.0000000  -0.0000000  -0.0000000  -0.0000000  -0.0000000
 NQMom=    0.0000000   0.0000000   0.0000000   0.0000000   0.0000000   0.0000000   0.0000000   0.0000000   0.0000000   0.0000000
 NMagM=    2.7928460   0.0000000   2.7928460   2.7928460   2.7928460   0.0000000   2.7928460   2.7928460   2.7928460   0.0000000
 AtZNuc=   1.0000000   6.0000000   1.0000000   1.0000000   1.0000000   6.0000000   1.0000000   1.0000000   1.0000000   6.0000000

  Atom        61          62          63          64          65          66          67          68          69          70
 IAtWgt=           1           1           1          12           1           1           1          12           1           1
 AtmWgt=   1.0078250   1.0078250   1.0078250  12.0000000   1.0078250   1.0078250   1.0078250  12.0000000   1.0078250   1.0078250
 NucSpn=           1           1           1           0           1           1           1           0           1           1
 AtZEff=  -0.0000000  -0.0000000  -0.0000000  -0.0000000  -0.0000000  -0.0000000  -0.0000000  -0.0000000  -0.0000000  -0.0000000
 NQMom=    0.0000000   0.0000000   0.0000000   0.0000000   0.0000000   0.0000000   0.0000000   0.0000000   0.0000000   0.0000000
 NMagM=    2.7928460   2.7928460   2.7928460   0.0000000   2.7928460   2.7928460   2.7928460   0.0000000   2.7928460   2.7928460
 AtZNuc=   1.0000000   1.0000000   1.0000000   6.0000000   1.0000000   1.0000000   1.0000000   6.0000000   1.0000000   1.0000000

  Atom        71          72
 IAtWgt=           1           1
 AtmWgt=   1.0078250   1.0078250
 NucSpn=           1           1
 AtZEff=  -0.0000000  -0.0000000
 NQMom=    0.0000000   0.0000000
 NMagM=    2.7928460   2.7928460
 AtZNuc=   1.0000000   1.0000000
 Leave Link  101 at Mon Jan 31 11:25:45 2022, MaxMem=  8589934592 cpu:               7.1 elap:               0.3
 (Enter /share/apps/g16.b01_avx2/g16/l103.exe)

 GradGradGradGradGradGradGradGradGradGradGradGradGradGradGradGradGradGrad
 Berny optimization.
 Initialization pass.
                           ----------------------------
                           !    Initial Parameters    !
                           ! (Angstroms and Degrees)  !
 --------------------------                            --------------------------
 ! Name  Definition              Value          Derivative Info.                !
 --------------------------------------------------------------------------------
 ! R1    R(1,2)                  1.4531         estimate D2E/DX2                !
 ! R2    R(1,9)                  1.5395         estimate D2E/DX2                !
 ! R3    R(1,18)                 1.0972         estimate D2E/DX2                !
 ! R4    R(1,64)                 1.5422         estimate D2E/DX2                !
 ! R5    R(2,3)                  1.0169         estimate D2E/DX2                !
 ! R6    R(2,4)                  1.3509         estimate D2E/DX2                !
 ! R7    R(4,5)                  1.2362         estimate D2E/DX2                !
 ! R8    R(4,6)                  1.54           estimate D2E/DX2                !
 ! R9    R(6,7)                  1.4529         estimate D2E/DX2                !
 ! R10   R(6,60)                 1.542          estimate D2E/DX2                !
 ! R11   R(6,72)                 1.0971         estimate D2E/DX2                !
 ! R12   R(7,8)                  1.0171         estimate D2E/DX2                !
 ! R13   R(7,30)                 1.3509         estimate D2E/DX2                !
 ! R14   R(9,10)                 1.2363         estimate D2E/DX2                !
 ! R15   R(9,11)                 1.3515         estimate D2E/DX2                !
 ! R16   R(11,12)                1.0168         estimate D2E/DX2                !
 ! R17   R(11,13)                1.4522         estimate D2E/DX2                !
 ! R18   R(13,14)                1.5406         estimate D2E/DX2                !
 ! R19   R(13,19)                1.0974         estimate D2E/DX2                !
 ! R20   R(13,68)                1.5424         estimate D2E/DX2                !
 ! R21   R(14,15)                1.2324         estimate D2E/DX2                !
 ! R22   R(14,16)                1.3592         estimate D2E/DX2                !
 ! R23   R(16,17)                1.0108         estimate D2E/DX2                !
 ! R24   R(16,34)                1.4564         estimate D2E/DX2                !
 ! R25   R(20,21)                1.4527         estimate D2E/DX2                !
 ! R26   R(20,30)                1.54           estimate D2E/DX2                !
 ! R27   R(20,32)                1.0972         estimate D2E/DX2                !
 ! R28   R(20,56)                1.5421         estimate D2E/DX2                !
 ! R29   R(21,22)                1.017          estimate D2E/DX2                !
 ! R30   R(21,23)                1.3515         estimate D2E/DX2                !
 ! R31   R(23,24)                1.2361         estimate D2E/DX2                !
 ! R32   R(23,25)                1.5394         estimate D2E/DX2                !
 ! R33   R(25,26)                1.4521         estimate D2E/DX2                !
 ! R34   R(25,33)                1.0971         estimate D2E/DX2                !
 ! R35   R(25,52)                1.5424         estimate D2E/DX2                !
 ! R36   R(26,27)                1.0166         estimate D2E/DX2                !
 ! R37   R(26,28)                1.3531         estimate D2E/DX2                !
 ! R38   R(28,29)                1.2363         estimate D2E/DX2                !
 ! R39   R(28,38)                1.538          estimate D2E/DX2                !
 ! R40   R(30,31)                1.2364         estimate D2E/DX2                !
 ! R41   R(34,35)                1.0913         estimate D2E/DX2                !
 ! R42   R(34,36)                1.0961         estimate D2E/DX2                !
 ! R43   R(34,37)                1.0962         estimate D2E/DX2                !
 ! R44   R(38,39)                1.0974         estimate D2E/DX2                !
 ! R45   R(38,47)                1.4507         estimate D2E/DX2                !
 ! R46   R(38,48)                1.5432         estimate D2E/DX2                !
 ! R47   R(40,47)                1.0148         estimate D2E/DX2                !
 ! R48   R(41,42)                1.5222         estimate D2E/DX2                !
 ! R49   R(41,46)                1.2325         estimate D2E/DX2                !
 ! R50   R(41,47)                1.3622         estimate D2E/DX2                !
 ! R51   R(42,43)                1.0945         estimate D2E/DX2                !
 ! R52   R(42,44)                1.0946         estimate D2E/DX2                !
 ! R53   R(42,45)                1.0945         estimate D2E/DX2                !
 ! R54   R(48,49)                1.0954         estimate D2E/DX2                !
 ! R55   R(48,50)                1.0957         estimate D2E/DX2                !
 ! R56   R(48,51)                1.093          estimate D2E/DX2                !
 ! R57   R(52,53)                1.0952         estimate D2E/DX2                !
 ! R58   R(52,54)                1.0955         estimate D2E/DX2                !
 ! R59   R(52,55)                1.093          estimate D2E/DX2                !
 ! R60   R(56,57)                1.0952         estimate D2E/DX2                !
 ! R61   R(56,58)                1.0954         estimate D2E/DX2                !
 ! R62   R(56,59)                1.093          estimate D2E/DX2                !
 ! R63   R(60,61)                1.0952         estimate D2E/DX2                !
 ! R64   R(60,62)                1.0955         estimate D2E/DX2                !
 ! R65   R(60,63)                1.093          estimate D2E/DX2                !
 ! R66   R(64,65)                1.0952         estimate D2E/DX2                !
 ! R67   R(64,66)                1.0954         estimate D2E/DX2                !
 ! R68   R(64,67)                1.0929         estimate D2E/DX2                !
 ! R69   R(68,69)                1.0931         estimate D2E/DX2                !
 ! R70   R(68,70)                1.0949         estimate D2E/DX2                !
 ! R71   R(68,71)                1.0958         estimate D2E/DX2                !
 ! A1    A(2,1,9)              106.1474         estimate D2E/DX2                !
 ! A2    A(2,1,18)             108.8914         estimate D2E/DX2                !
 ! A3    A(2,1,64)             112.1315         estimate D2E/DX2                !
 ! A4    A(9,1,18)             109.3968         estimate D2E/DX2                !
 ! A5    A(9,1,64)             111.5408         estimate D2E/DX2                !
 ! A6    A(18,1,64)            108.6665         estimate D2E/DX2                !
 ! A7    A(1,2,3)              114.4891         estimate D2E/DX2                !
 ! A8    A(1,2,4)              122.9143         estimate D2E/DX2                !
 ! A9    A(3,2,4)              122.1305         estimate D2E/DX2                !
 ! A10   A(2,4,5)              123.3996         estimate D2E/DX2                !
 ! A11   A(2,4,6)              115.3608         estimate D2E/DX2                !
 ! A12   A(5,4,6)              121.2378         estimate D2E/DX2                !
 ! A13   A(4,6,7)              106.1249         estimate D2E/DX2                !
 ! A14   A(4,6,60)             111.5271         estimate D2E/DX2                !
 ! A15   A(4,6,72)             109.4614         estimate D2E/DX2                !
 ! A16   A(7,6,60)             112.1331         estimate D2E/DX2                !
 ! A17   A(7,6,72)             108.846          estimate D2E/DX2                !
 ! A18   A(60,6,72)            108.6821         estimate D2E/DX2                !
 ! A19   A(6,7,8)              114.3902         estimate D2E/DX2                !
 ! A20   A(6,7,30)             122.947          estimate D2E/DX2                !
 ! A21   A(8,7,30)             122.1226         estimate D2E/DX2                !
 ! A22   A(1,9,10)             121.3484         estimate D2E/DX2                !
 ! A23   A(1,9,11)             115.4059         estimate D2E/DX2                !
 ! A24   A(10,9,11)            123.2431         estimate D2E/DX2                !
 ! A25   A(9,11,12)            122.2566         estimate D2E/DX2                !
 ! A26   A(9,11,13)            122.6816         estimate D2E/DX2                !
 ! A27   A(12,11,13)           114.6041         estimate D2E/DX2                !
 ! A28   A(11,13,14)           106.2343         estimate D2E/DX2                !
 ! A29   A(11,13,19)           108.6258         estimate D2E/DX2                !
 ! A30   A(11,13,68)           112.0264         estimate D2E/DX2                !
 ! A31   A(14,13,19)           109.7945         estimate D2E/DX2                !
 ! A32   A(14,13,68)           111.339          estimate D2E/DX2                !
 ! A33   A(19,13,68)           108.7619         estimate D2E/DX2                !
 ! A34   A(13,14,15)           121.154          estimate D2E/DX2                !
 ! A35   A(13,14,16)           115.0511         estimate D2E/DX2                !
 ! A36   A(15,14,16)           123.7886         estimate D2E/DX2                !
 ! A37   A(14,16,17)           118.2716         estimate D2E/DX2                !
 ! A38   A(14,16,34)           123.0161         estimate D2E/DX2                !
 ! A39   A(17,16,34)           118.7123         estimate D2E/DX2                !
 ! A40   A(21,20,30)           106.1877         estimate D2E/DX2                !
 ! A41   A(21,20,32)           108.8715         estimate D2E/DX2                !
 ! A42   A(21,20,56)           112.1325         estimate D2E/DX2                !
 ! A43   A(30,20,32)           109.4514         estimate D2E/DX2                !
 ! A44   A(30,20,56)           111.4696         estimate D2E/DX2                !
 ! A45   A(32,20,56)           108.6645         estimate D2E/DX2                !
 ! A46   A(20,21,22)           114.4673         estimate D2E/DX2                !
 ! A47   A(20,21,23)           122.9404         estimate D2E/DX2                !
 ! A48   A(22,21,23)           122.1258         estimate D2E/DX2                !
 ! A49   A(21,23,24)           123.3476         estimate D2E/DX2                !
 ! A50   A(21,23,25)           115.311          estimate D2E/DX2                !
 ! A51   A(24,23,25)           121.3376         estimate D2E/DX2                !
 ! A52   A(23,25,26)           106.3447         estimate D2E/DX2                !
 ! A53   A(23,25,33)           109.5352         estimate D2E/DX2                !
 ! A54   A(23,25,52)           111.3153         estimate D2E/DX2                !
 ! A55   A(26,25,33)           108.8292         estimate D2E/DX2                !
 ! A56   A(26,25,52)           112.1346         estimate D2E/DX2                !
 ! A57   A(33,25,52)           108.6253         estimate D2E/DX2                !
 ! A58   A(25,26,27)           114.638          estimate D2E/DX2                !
 ! A59   A(25,26,28)           122.8701         estimate D2E/DX2                !
 ! A60   A(27,26,28)           122.0135         estimate D2E/DX2                !
 ! A61   A(26,28,29)           123.1261         estimate D2E/DX2                !
 ! A62   A(26,28,38)           115.2278         estimate D2E/DX2                !
 ! A63   A(29,28,38)           121.6409         estimate D2E/DX2                !
 ! A64   A(7,30,20)            115.325          estimate D2E/DX2                !
 ! A65   A(7,30,31)            123.3924         estimate D2E/DX2                !
 ! A66   A(20,30,31)           121.2795         estimate D2E/DX2                !
 ! A67   A(16,34,35)           107.7284         estimate D2E/DX2                !
 ! A68   A(16,34,36)           110.9611         estimate D2E/DX2                !
 ! A69   A(16,34,37)           111.0177         estimate D2E/DX2                !
 ! A70   A(35,34,36)           108.9862         estimate D2E/DX2                !
 ! A71   A(35,34,37)           109.0477         estimate D2E/DX2                !
 ! A72   A(36,34,37)           109.0515         estimate D2E/DX2                !
 ! A73   A(28,38,39)           109.608          estimate D2E/DX2                !
 ! A74   A(28,38,47)           106.7302         estimate D2E/DX2                !
 ! A75   A(28,38,48)           111.1516         estimate D2E/DX2                !
 ! A76   A(39,38,47)           108.7746         estimate D2E/DX2                !
 ! A77   A(39,38,48)           108.4079         estimate D2E/DX2                !
 ! A78   A(47,38,48)           112.1243         estimate D2E/DX2                !
 ! A79   A(42,41,46)           121.9129         estimate D2E/DX2                !
 ! A80   A(42,41,47)           115.5            estimate D2E/DX2                !
 ! A81   A(46,41,47)           122.5866         estimate D2E/DX2                !
 ! A82   A(41,42,43)           113.5225         estimate D2E/DX2                !
 ! A83   A(41,42,44)           108.6366         estimate D2E/DX2                !
 ! A84   A(41,42,45)           108.564          estimate D2E/DX2                !
 ! A85   A(43,42,44)           109.1787         estimate D2E/DX2                !
 ! A86   A(43,42,45)           109.2827         estimate D2E/DX2                !
 ! A87   A(44,42,45)           107.4812         estimate D2E/DX2                !
 ! A88   A(38,47,40)           115.0124         estimate D2E/DX2                !
 ! A89   A(38,47,41)           122.3873         estimate D2E/DX2                !
 ! A90   A(40,47,41)           122.1945         estimate D2E/DX2                !
 ! A91   A(38,48,49)           110.5129         estimate D2E/DX2                !
 ! A92   A(38,48,50)           111.3622         estimate D2E/DX2                !
 ! A93   A(38,48,51)           108.781          estimate D2E/DX2                !
 ! A94   A(49,48,50)           108.6091         estimate D2E/DX2                !
 ! A95   A(49,48,51)           109.1061         estimate D2E/DX2                !
 ! A96   A(50,48,51)           108.4196         estimate D2E/DX2                !
 ! A97   A(25,52,53)           110.5302         estimate D2E/DX2                !
 ! A98   A(25,52,54)           111.2863         estimate D2E/DX2                !
 ! A99   A(25,52,55)           108.9915         estimate D2E/DX2                !
 ! A100  A(53,52,54)           108.5779         estimate D2E/DX2                !
 ! A101  A(53,52,55)           109.0313         estimate D2E/DX2                !
 ! A102  A(54,52,55)           108.3706         estimate D2E/DX2                !
 ! A103  A(20,56,57)           110.5586         estimate D2E/DX2                !
 ! A104  A(20,56,58)           111.2834         estimate D2E/DX2                !
 ! A105  A(20,56,59)           109.0273         estimate D2E/DX2                !
 ! A106  A(57,56,58)           108.5579         estimate D2E/DX2                !
 ! A107  A(57,56,59)           109.0509         estimate D2E/DX2                !
 ! A108  A(58,56,59)           108.308          estimate D2E/DX2                !
 ! A109  A(6,60,61)            110.5588         estimate D2E/DX2                !
 ! A110  A(6,60,62)            111.2865         estimate D2E/DX2                !
 ! A111  A(6,60,63)            109.0642         estimate D2E/DX2                !
 ! A112  A(61,60,62)           108.5527         estimate D2E/DX2                !
 ! A113  A(61,60,63)           109.0286         estimate D2E/DX2                !
 ! A114  A(62,60,63)           108.2943         estimate D2E/DX2                !
 ! A115  A(1,64,65)            110.5655         estimate D2E/DX2                !
 ! A116  A(1,64,66)            111.3107         estimate D2E/DX2                !
 ! A117  A(1,64,67)            109.0326         estimate D2E/DX2                !
 ! A118  A(65,64,66)           108.5651         estimate D2E/DX2                !
 ! A119  A(65,64,67)           109.0421         estimate D2E/DX2                !
 ! A120  A(66,64,67)           108.2684         estimate D2E/DX2                !
 ! A121  A(13,68,69)           109.1308         estimate D2E/DX2                !
 ! A122  A(13,68,70)           110.5354         estimate D2E/DX2                !
 ! A123  A(13,68,71)           111.3914         estimate D2E/DX2                !
 ! A124  A(69,68,70)           109.0474         estimate D2E/DX2                !
 ! A125  A(69,68,71)           108.2171         estimate D2E/DX2                !
 ! A126  A(70,68,71)           108.46           estimate D2E/DX2                !
 ! D1    D(9,1,2,3)             11.0489         estimate D2E/DX2                !
 ! D2    D(9,1,2,4)           -161.2604         estimate D2E/DX2                !
 ! D3    D(18,1,2,3)           128.7275         estimate D2E/DX2                !
 ! D4    D(18,1,2,4)           -43.5818         estimate D2E/DX2                !
 ! D5    D(64,1,2,3)          -110.9835         estimate D2E/DX2                !
 ! D6    D(64,1,2,4)            76.7072         estimate D2E/DX2                !
 ! D7    D(2,1,9,10)           -10.5431         estimate D2E/DX2                !
 ! D8    D(2,1,9,11)           170.029          estimate D2E/DX2                !
 ! D9    D(18,1,9,10)         -127.8848         estimate D2E/DX2                !
 ! D10   D(18,1,9,11)           52.6873         estimate D2E/DX2                !
 ! D11   D(64,1,9,10)          111.8648         estimate D2E/DX2                !
 ! D12   D(64,1,9,11)          -67.5631         estimate D2E/DX2                !
 ! D13   D(2,1,64,65)           62.0663         estimate D2E/DX2                !
 ! D14   D(2,1,64,66)         -177.1784         estimate D2E/DX2                !
 ! D15   D(2,1,64,67)          -57.8046         estimate D2E/DX2                !
 ! D16   D(9,1,64,65)          -56.8355         estimate D2E/DX2                !
 ! D17   D(9,1,64,66)           63.9198         estimate D2E/DX2                !
 ! D18   D(9,1,64,67)         -176.7064         estimate D2E/DX2                !
 ! D19   D(18,1,64,65)        -177.5141         estimate D2E/DX2                !
 ! D20   D(18,1,64,66)         -56.7588         estimate D2E/DX2                !
 ! D21   D(18,1,64,67)          62.6149         estimate D2E/DX2                !
 ! D22   D(1,2,4,5)             -3.849          estimate D2E/DX2                !
 ! D23   D(1,2,4,6)            175.664          estimate D2E/DX2                !
 ! D24   D(3,2,4,5)           -175.5805         estimate D2E/DX2                !
 ! D25   D(3,2,4,6)              3.9326         estimate D2E/DX2                !
 ! D26   D(2,4,6,7)            168.8783         estimate D2E/DX2                !
 ! D27   D(2,4,6,60)           -68.7346         estimate D2E/DX2                !
 ! D28   D(2,4,6,72)            51.5693         estimate D2E/DX2                !
 ! D29   D(5,4,6,7)            -11.5972         estimate D2E/DX2                !
 ! D30   D(5,4,6,60)           110.7899         estimate D2E/DX2                !
 ! D31   D(5,4,6,72)          -128.9061         estimate D2E/DX2                !
 ! D32   D(4,6,7,8)             11.6132         estimate D2E/DX2                !
 ! D33   D(4,6,7,30)          -160.1093         estimate D2E/DX2                !
 ! D34   D(60,6,7,8)          -110.3884         estimate D2E/DX2                !
 ! D35   D(60,6,7,30)           77.8891         estimate D2E/DX2                !
 ! D36   D(72,6,7,8)           129.3325         estimate D2E/DX2                !
 ! D37   D(72,6,7,30)          -42.3901         estimate D2E/DX2                !
 ! D38   D(4,6,60,61)          -56.8766         estimate D2E/DX2                !
 ! D39   D(4,6,60,62)           63.8422         estimate D2E/DX2                !
 ! D40   D(4,6,60,63)         -176.7467         estimate D2E/DX2                !
 ! D41   D(7,6,60,61)           61.9883         estimate D2E/DX2                !
 ! D42   D(7,6,60,62)         -177.2928         estimate D2E/DX2                !
 ! D43   D(7,6,60,63)          -57.8818         estimate D2E/DX2                !
 ! D44   D(72,6,60,61)        -177.6373         estimate D2E/DX2                !
 ! D45   D(72,6,60,62)         -56.9185         estimate D2E/DX2                !
 ! D46   D(72,6,60,63)          62.4926         estimate D2E/DX2                !
 ! D47   D(6,7,30,20)          174.9229         estimate D2E/DX2                !
 ! D48   D(6,7,30,31)           -4.4509         estimate D2E/DX2                !
 ! D49   D(8,7,30,20)            3.8293         estimate D2E/DX2                !
 ! D50   D(8,7,30,31)         -175.5446         estimate D2E/DX2                !
 ! D51   D(1,9,11,12)            3.6975         estimate D2E/DX2                !
 ! D52   D(1,9,11,13)          175.5129         estimate D2E/DX2                !
 ! D53   D(10,9,11,12)        -175.7184         estimate D2E/DX2                !
 ! D54   D(10,9,11,13)          -3.9029         estimate D2E/DX2                !
 ! D55   D(9,11,13,14)        -159.3982         estimate D2E/DX2                !
 ! D56   D(9,11,13,19)         -41.3416         estimate D2E/DX2                !
 ! D57   D(9,11,13,68)          78.8233         estimate D2E/DX2                !
 ! D58   D(12,11,13,14)         12.9928         estimate D2E/DX2                !
 ! D59   D(12,11,13,19)        131.0494         estimate D2E/DX2                !
 ! D60   D(12,11,13,68)       -108.7858         estimate D2E/DX2                !
 ! D61   D(11,13,14,15)        -14.0148         estimate D2E/DX2                !
 ! D62   D(11,13,14,16)        166.8623         estimate D2E/DX2                !
 ! D63   D(19,13,14,15)       -131.2946         estimate D2E/DX2                !
 ! D64   D(19,13,14,16)         49.5824         estimate D2E/DX2                !
 ! D65   D(68,13,14,15)        108.2012         estimate D2E/DX2                !
 ! D66   D(68,13,14,16)        -70.9218         estimate D2E/DX2                !
 ! D67   D(11,13,68,69)        -57.4043         estimate D2E/DX2                !
 ! D68   D(11,13,68,70)         62.5167         estimate D2E/DX2                !
 ! D69   D(11,13,68,71)       -176.8275         estimate D2E/DX2                !
 ! D70   D(14,13,68,69)       -176.2089         estimate D2E/DX2                !
 ! D71   D(14,13,68,70)        -56.2879         estimate D2E/DX2                !
 ! D72   D(14,13,68,71)         64.368          estimate D2E/DX2                !
 ! D73   D(19,13,68,69)         62.6812         estimate D2E/DX2                !
 ! D74   D(19,13,68,70)       -177.3978         estimate D2E/DX2                !
 ! D75   D(19,13,68,71)        -56.742          estimate D2E/DX2                !
 ! D76   D(13,14,16,17)         -2.1269         estimate D2E/DX2                !
 ! D77   D(13,14,16,34)        177.7843         estimate D2E/DX2                !
 ! D78   D(15,14,16,17)        178.7762         estimate D2E/DX2                !
 ! D79   D(15,14,16,34)         -1.3126         estimate D2E/DX2                !
 ! D80   D(14,16,34,35)          0.0215         estimate D2E/DX2                !
 ! D81   D(14,16,34,36)        119.2461         estimate D2E/DX2                !
 ! D82   D(14,16,34,37)       -119.3108         estimate D2E/DX2                !
 ! D83   D(17,16,34,35)        179.9324         estimate D2E/DX2                !
 ! D84   D(17,16,34,36)        -60.843          estimate D2E/DX2                !
 ! D85   D(17,16,34,37)         60.6001         estimate D2E/DX2                !
 ! D86   D(30,20,21,22)         11.2958         estimate D2E/DX2                !
 ! D87   D(30,20,21,23)       -161.0087         estimate D2E/DX2                !
 ! D88   D(32,20,21,22)        129.0502         estimate D2E/DX2                !
 ! D89   D(32,20,21,23)        -43.2543         estimate D2E/DX2                !
 ! D90   D(56,20,21,22)       -110.6759         estimate D2E/DX2                !
 ! D91   D(56,20,21,23)         77.0195         estimate D2E/DX2                !
 ! D92   D(21,20,30,7)         169.3617         estimate D2E/DX2                !
 ! D93   D(21,20,30,31)        -11.2501         estimate D2E/DX2                !
 ! D94   D(32,20,30,7)          51.9934         estimate D2E/DX2                !
 ! D95   D(32,20,30,31)       -128.6184         estimate D2E/DX2                !
 ! D96   D(56,20,30,7)         -68.2452         estimate D2E/DX2                !
 ! D97   D(56,20,30,31)        111.1431         estimate D2E/DX2                !
 ! D98   D(21,20,56,57)         62.4391         estimate D2E/DX2                !
 ! D99   D(21,20,56,58)       -176.8376         estimate D2E/DX2                !
 ! D100  D(21,20,56,59)        -57.4351         estimate D2E/DX2                !
 ! D101  D(30,20,56,57)        -56.4661         estimate D2E/DX2                !
 ! D102  D(30,20,56,58)         64.2572         estimate D2E/DX2                !
 ! D103  D(30,20,56,59)       -176.3403         estimate D2E/DX2                !
 ! D104  D(32,20,56,57)       -177.1668         estimate D2E/DX2                !
 ! D105  D(32,20,56,58)        -56.4435         estimate D2E/DX2                !
 ! D106  D(32,20,56,59)         62.959          estimate D2E/DX2                !
 ! D107  D(20,21,23,24)         -4.1888         estimate D2E/DX2                !
 ! D108  D(20,21,23,25)        175.1137         estimate D2E/DX2                !
 ! D109  D(22,21,23,24)       -175.9141         estimate D2E/DX2                !
 ! D110  D(22,21,23,25)          3.3884         estimate D2E/DX2                !
 ! D111  D(21,23,25,26)        168.0969         estimate D2E/DX2                !
 ! D112  D(21,23,25,33)         50.6493         estimate D2E/DX2                !
 ! D113  D(21,23,25,52)        -69.4972         estimate D2E/DX2                !
 ! D114  D(24,23,25,26)        -12.5853         estimate D2E/DX2                !
 ! D115  D(24,23,25,33)       -130.0329         estimate D2E/DX2                !
 ! D116  D(24,23,25,52)        109.8206         estimate D2E/DX2                !
 ! D117  D(23,25,26,27)         12.0671         estimate D2E/DX2                !
 ! D118  D(23,25,26,28)       -160.1341         estimate D2E/DX2                !
 ! D119  D(33,25,26,27)        129.9829         estimate D2E/DX2                !
 ! D120  D(33,25,26,28)        -42.2183         estimate D2E/DX2                !
 ! D121  D(52,25,26,27)       -109.8193         estimate D2E/DX2                !
 ! D122  D(52,25,26,28)         77.9795         estimate D2E/DX2                !
 ! D123  D(23,25,52,53)        -56.4565         estimate D2E/DX2                !
 ! D124  D(23,25,52,54)         64.2747         estimate D2E/DX2                !
 ! D125  D(23,25,52,55)       -176.2666         estimate D2E/DX2                !
 ! D126  D(26,25,52,53)         62.5447         estimate D2E/DX2                !
 ! D127  D(26,25,52,54)       -176.7241         estimate D2E/DX2                !
 ! D128  D(26,25,52,55)        -57.2654         estimate D2E/DX2                !
 ! D129  D(33,25,52,53)       -177.1391         estimate D2E/DX2                !
 ! D130  D(33,25,52,54)        -56.4079         estimate D2E/DX2                !
 ! D131  D(33,25,52,55)         63.0508         estimate D2E/DX2                !
 ! D132  D(25,26,28,29)         -4.4395         estimate D2E/DX2                !
 ! D133  D(25,26,28,38)        174.7421         estimate D2E/DX2                !
 ! D134  D(27,26,28,29)       -176.0754         estimate D2E/DX2                !
 ! D135  D(27,26,28,38)          3.1062         estimate D2E/DX2                !
 ! D136  D(26,28,38,39)         49.6935         estimate D2E/DX2                !
 ! D137  D(26,28,38,47)        167.3287         estimate D2E/DX2                !
 ! D138  D(26,28,38,48)        -70.1257         estimate D2E/DX2                !
 ! D139  D(29,28,38,39)       -131.1116         estimate D2E/DX2                !
 ! D140  D(29,28,38,47)        -13.4763         estimate D2E/DX2                !
 ! D141  D(29,28,38,48)        109.0693         estimate D2E/DX2                !
 ! D142  D(28,38,47,40)         11.9345         estimate D2E/DX2                !
 ! D143  D(28,38,47,41)       -160.8976         estimate D2E/DX2                !
 ! D144  D(39,38,47,40)        130.1174         estimate D2E/DX2                !
 ! D145  D(39,38,47,41)        -42.7146         estimate D2E/DX2                !
 ! D146  D(48,38,47,40)       -109.9993         estimate D2E/DX2                !
 ! D147  D(48,38,47,41)         77.1687         estimate D2E/DX2                !
 ! D148  D(28,38,48,49)        -56.629          estimate D2E/DX2                !
 ! D149  D(28,38,48,50)         64.1807         estimate D2E/DX2                !
 ! D150  D(28,38,48,51)       -176.3885         estimate D2E/DX2                !
 ! D151  D(39,38,48,49)       -177.1592         estimate D2E/DX2                !
 ! D152  D(39,38,48,50)        -56.3495         estimate D2E/DX2                !
 ! D153  D(39,38,48,51)         63.0813         estimate D2E/DX2                !
 ! D154  D(47,38,48,49)         62.7437         estimate D2E/DX2                !
 ! D155  D(47,38,48,50)       -176.4466         estimate D2E/DX2                !
 ! D156  D(47,38,48,51)        -57.0158         estimate D2E/DX2                !
 ! D157  D(46,41,42,43)        179.4427         estimate D2E/DX2                !
 ! D158  D(46,41,42,44)        -58.895          estimate D2E/DX2                !
 ! D159  D(46,41,42,45)         57.6997         estimate D2E/DX2                !
 ! D160  D(47,41,42,43)         -0.8024         estimate D2E/DX2                !
 ! D161  D(47,41,42,44)        120.8598         estimate D2E/DX2                !
 ! D162  D(47,41,42,45)       -122.5454         estimate D2E/DX2                !
 ! D163  D(42,41,47,38)        177.4659         estimate D2E/DX2                !
 ! D164  D(42,41,47,40)          5.1448         estimate D2E/DX2                !
 ! D165  D(46,41,47,38)         -2.7811         estimate D2E/DX2                !
 ! D166  D(46,41,47,40)       -175.1021         estimate D2E/DX2                !
 --------------------------------------------------------------------------------
 Trust Radius=3.00D-01 FncErr=1.00D-07 GrdErr=1.00D-07 EigMax=2.50D+02 EigMin=1.00D-04
 Number of steps in this run=    373 maximum allowed number of steps=    432.
 GradGradGradGradGradGradGradGradGradGradGradGradGradGradGradGradGradGrad

 Leave Link  103 at Mon Jan 31 11:25:45 2022, MaxMem=  8589934592 cpu:               0.2 elap:               0.0
 (Enter /share/apps/g16.b01_avx2/g16/l202.exe)
 Stoichiometry    C21H37N7O7
 Framework group  C1[X(C21H37N7O7)]
 Deg. of freedom   210
 Full point group                 C1      NOp   1
 Largest Abelian subgroup         C1      NOp   1
 Largest concise Abelian subgroup C1      NOp   1
                         Standard orientation:                         
 ---------------------------------------------------------------------
 Center     Atomic      Atomic             Coordinates (Angstroms)
 Number     Number       Type             X           Y           Z
 ---------------------------------------------------------------------
      1          6           0        5.496862   -0.632417    0.051619
      2          7           0        4.283281    0.123518   -0.207764
      3          1           0        4.435197    1.024582   -0.654053
      4          6           0        3.069859   -0.256978    0.248176
      5          8           0        2.874047   -1.310970    0.863771
      6          6           0        1.919373    0.725522   -0.039350
      7          7           0        0.693055    0.016836    0.284601
      8          1           0        0.832704   -0.855636    0.788329
      9          6           0        6.666624    0.336466   -0.199192
     10          8           0        6.486740    1.437886   -0.731037
     11          7           0        7.881997   -0.109086    0.189144
     12          1           0        8.022537   -1.042654    0.566846
     13          6           0        9.105236    0.633614   -0.058065
     14          6           0       10.255343   -0.387032    0.036386
     15          8           0       10.077702   -1.504356    0.525184
     16          7           0       11.452561    0.049606   -0.436285
     17          1           0       11.499746    0.976149   -0.837624
     18          1           0        5.502297   -0.945778    1.103142
     19          1           0        9.062283    1.052365   -1.071491
     20          6           0       -1.680079   -0.557766    0.164648
     21          7           0       -2.897431    0.141395   -0.209036
     22          1           0       -2.748179    0.977421   -0.768490
     23          6           0       -4.114232   -0.190745    0.276467
     24          8           0       -4.308320   -1.160170    1.018469
     25          6           0       -5.266934    0.738681   -0.144540
     26          7           0       -6.495554    0.061643    0.230534
     27          1           0       -6.367508   -0.742524    0.839101
     28          6           0       -7.697195    0.366916   -0.311470
     29          8           0       -7.861925    1.297052   -1.108985
     30          6           0       -0.516502    0.386617   -0.189984
     31          8           0       -0.698371    1.400982   -0.873035
     32          1           0       -1.690354   -0.734282    1.247503
     33          1           0       -5.253254    0.869924   -1.233721
     34          6           0       12.665705   -0.754735   -0.388408
     35          1           0       12.413156   -1.709714    0.075476
     36          1           0       13.053654   -0.939625   -1.396784
     37          1           0       13.441437   -0.261097    0.208499
     38          6           0       -8.860452   -0.542526    0.118799
     39          1           0       -8.872234   -0.632838    1.212385
     40          1           0       -9.951513    0.892033   -0.944529
     41          6           0      -11.299231   -0.197145    0.219888
     42          6           0      -12.468294    0.627501   -0.300073
     43          1           0      -12.176229    1.385114   -1.034031
     44          1           0      -13.199484   -0.049218   -0.753345
     45          1           0      -12.955170    1.116203    0.549611
     46          8           0      -11.451633   -1.086479    1.059529
     47          7           0      -10.082421    0.111962   -0.308823
     48          6           0       -8.715697   -1.955199   -0.485311
     49          1           0       -8.649475   -1.900741   -1.577310
     50          1           0       -7.821505   -2.461933   -0.105638
     51          1           0       -9.591773   -2.547479   -0.209125
     52          6           0       -5.140921    2.124734    0.520266
     53          1           0       -5.100247    2.025662    1.610237
     54          1           0       -4.238681    2.646874    0.183348
     55          1           0       -6.010254    2.729447    0.249536
     56          6           0       -1.545129   -1.914783   -0.555325
     57          1           0       -1.481142   -1.770473   -1.639096
     58          1           0       -0.652053   -2.454585   -0.222160
     59          1           0       -2.421285   -2.527386   -0.328111
     60          6           0        2.070305    2.027075    0.773653
     61          1           0        2.123565    1.807207    1.845197
     62          1           0        2.974514    2.573912    0.484666
     63          1           0        1.205974    2.668714    0.584043
     64          6           0        5.600704   -1.887782   -0.838064
     65          1           0        5.642305   -1.607264   -1.895868
     66          1           0        6.494427   -2.473617   -0.597193
     67          1           0        4.723075   -2.517089   -0.670305
     68          6           0        9.294732    1.787387    0.947822
     69          1           0        8.428335    2.452025    0.897987
     70          1           0        9.387716    1.397302    1.966680
     71          1           0       10.190819    2.374838    0.718059
     72          1           0        1.911795    0.977077   -1.107199
 ---------------------------------------------------------------------
 Rotational constants (GHZ):           0.6190154           0.0187338           0.0184227
 Leave Link  202 at Mon Jan 31 11:25:45 2022, MaxMem=  8589934592 cpu:               0.0 elap:               0.0
 (Enter /share/apps/g16.b01_avx2/g16/l301.exe)
 Standard basis: 6-31+G(d,p) (6D, 7F)
 Ernie: Thresh=  0.10000D-02 Tol=  0.10000D-05 Strict=F.
 There are   850 symmetry adapted cartesian basis functions of A   symmetry.
 There are   850 symmetry adapted basis functions of A   symmetry.
   850 basis functions,  1379 primitive gaussians,   850 cartesian basis functions
   134 alpha electrons      134 beta electrons
       nuclear repulsion energy      3475.9619358394 Hartrees.
 IExCor= 1009 DFT=T Ex+Corr=PBE1PBE ExCW=0 ScaHFX=  0.250000
 ScaDFX=  0.750000  0.750000  1.000000  1.000000 ScalE2=  1.000000  1.000000
 IRadAn=  99590 IRanWt=     -1 IRanGd=            0 ICorTp=0 IEmpDi=131
 NAtoms=   72 NActive=   72 NUniq=   72 SFac= 1.00D+00 NAtFMM=   60 NAOKFM=T Big=T
 Integral buffers will be    131072 words long.
 Raffenetti 2 integral format.
 Two-electron integral symmetry is turned on.
 R6Disp:  Grimme-D3 Dispersion energy=       -0.0477487105 Hartrees.
 Nuclear repulsion after empirical dispersion term =     3475.9141871289 Hartrees.
 Leave Link  301 at Mon Jan 31 11:25:45 2022, MaxMem=  8589934592 cpu:               0.5 elap:               0.0
 (Enter /share/apps/g16.b01_avx2/g16/l302.exe)
 NPDir=0 NMtPBC=     1 NCelOv=     1 NCel=       1 NClECP=     1 NCelD=      1
         NCelK=      1 NCelE2=     1 NClLst=     1 CellRange=     0.0.
 One-electron integrals computed using PRISM.
 One-electron integral symmetry used in STVInt
 NBasis=   850 RedAO= T EigKep=  4.76D-06  NBF=   850
 NBsUse=   850 1.00D-06 EigRej= -1.00D+00 NBFU=   850
 Precomputing XC quadrature grid using
 IXCGrd= 4 IRadAn=       99590 IRanWt=          -1 IRanGd=           0 AccXCQ= 0.00D+00.
 Generated NRdTot=       0 NPtTot=           0 NUsed=           0 NTot=          32
 NSgBfM=   697   697   697   697   697 MxSgAt=    72 MxSgA2=    72.
 Leave Link  302 at Mon Jan 31 11:25:46 2022, MaxMem=  8589934592 cpu:              19.6 elap:               0.8
 (Enter /share/apps/g16.b01_avx2/g16/l303.exe)
 DipDrv:  MaxL=1.
 Leave Link  303 at Mon Jan 31 11:25:46 2022, MaxMem=  8589934592 cpu:               1.4 elap:               0.1
 (Enter /share/apps/g16.b01_avx2/g16/l401.exe)
 ExpMin= 4.38D-02 ExpMax= 5.48D+03 ExpMxC= 8.25D+02 IAcc=4 IRadAn=    199590 AccDes= 0.00D+00
 Harris functional with IExCor= 1009 and IRadAn=  199590 diagonalized for initial guess.
 HarFok:  IExCor= 1009 AccDes= 0.00D+00 IRadAn=    199590 IDoV= 1 UseB2=F ITyADJ=14
 ICtDFT=  3500011 ScaDFX=  1.000000  1.000000  1.000000  1.000000
 FoFCou: FMM=F IPFlag=           0 FMFlag=      100000 FMFlg1=        2001
         NFxFlg=           0 DoJE=T BraDBF=F KetDBF=T FulRan=T
         wScrn=  0.000000 ICntrl=       500 IOpCl=  0 I1Cent=   200000004 NGrid=           0
         NMat0=    1 NMatS0=      1 NMatT0=    0 NMatD0=    1 NMtDS0=    0 NMtDT0=    0
 Petite list used in FoFCou.
 Harris En= -1731.09378937026    
 JPrj=0 DoOrth=F DoCkMO=F.
 Leave Link  401 at Mon Jan 31 11:25:52 2022, MaxMem=  8589934592 cpu:             141.5 elap:               5.9
 (Enter /share/apps/g16.b01_avx2/g16/l502.exe)
 Integral symmetry usage will be decided dynamically.
 Closed shell SCF:
 Using DIIS extrapolation, IDIIS=  1040.
 NGot=  8589934592 LenX=  8588460558 LenY=  8587737208
 Requested convergence on RMS density matrix=1.00D-08 within 128 cycles.
 Requested convergence on MAX density matrix=1.00D-06.
 Requested convergence on             energy=1.00D-06.
 No special actions if energy rises.
 Fock matrices will be formed incrementally for  20 cycles.

 Cycle   1  Pass 1  IDiag  1:
 FoFJK:  IHMeth= 1 ICntrl=       0 DoSepK=F KAlg= 0 I1Cent=           0 FoldK=F
 IRaf= 660000000 NMat=       1 IRICut=       1 DoRegI=T DoRafI=F ISym2E= 0 IDoP0=0 IntGTp=1.
 FoFCou: FMM=T IPFlag=           0 FMFlag=      100000 FMFlg1=        2001
         NFxFlg=           0 DoJE=F BraDBF=F KetDBF=F FulRan=T
         wScrn=  0.000000 ICntrl=         0 IOpCl=  0 I1Cent=           0 NGrid=           0
         NMat0=    1 NMatS0=      1 NMatT0=    0 NMatD0=    1 NMtDS0=    0 NMtDT0=    0
 Symmetry not used in FoFCou.
 FMM levels:  10  Number of levels for PrismC:   9
 E= -1729.84798009730    
 DIIS: error= 1.44D-02 at cycle   1 NSaved=   1.
 NSaved= 1 IEnMin= 1 EnMin= -1729.84798009730     IErMin= 1 ErrMin= 1.44D-02
 ErrMax= 1.44D-02  0.00D+00 EMaxC= 1.00D-01 BMatC= 1.04D+00 BMatP= 1.04D+00
 IDIUse=3 WtCom= 8.56D-01 WtEn= 1.44D-01
 Coeff-Com:  0.100D+01
 Coeff-En:   0.100D+01
 Coeff:      0.100D+01
 Gap=     0.261 Goal=   None    Shift=    0.000
 GapD=    0.261 DampG=1.000 DampE=0.500 DampFc=0.5000 IDamp=-1.
 Damping current iteration by 5.00D-01
 RMSDP=1.49D-02 MaxDP=3.55D+00              OVMax= 2.28D-01

 Cycle   2  Pass 1  IDiag  1:
 RMSU=  6.34D-03    CP:  1.25D+00
 E= -1730.12306815516     Delta-E=       -0.275088057863 Rises=F Damp=T
 DIIS: error= 7.37D-03 at cycle   2 NSaved=   2.
 NSaved= 2 IEnMin= 2 EnMin= -1730.12306815516     IErMin= 2 ErrMin= 7.37D-03
 ErrMax= 7.37D-03  0.00D+00 EMaxC= 1.00D-01 BMatC= 1.51D-01 BMatP= 1.04D+00
 IDIUse=3 WtCom= 9.26D-01 WtEn= 7.37D-02
 Coeff-Com:  0.195D+00 0.805D+00
 Coeff-En:   0.307D+00 0.693D+00
 Coeff:      0.203D+00 0.797D+00
 Gap=     0.249 Goal=   None    Shift=    0.000
 RMSDP=6.43D-03 MaxDP=1.55D+00 DE=-2.75D-01 OVMax= 1.51D-01

 Cycle   3  Pass 1  IDiag  1:
 RMSU=  2.33D-03    CP:  9.83D-01  3.24D-01
 E= -1730.62693679415     Delta-E=       -0.503868638987 Rises=F Damp=F
 DIIS: error= 6.36D-03 at cycle   3 NSaved=   3.
 NSaved= 3 IEnMin= 3 EnMin= -1730.62693679415     IErMin= 3 ErrMin= 6.36D-03
 ErrMax= 6.36D-03  0.00D+00 EMaxC= 1.00D-01 BMatC= 1.23D-01 BMatP= 1.51D-01
 IDIUse=3 WtCom= 9.36D-01 WtEn= 6.36D-02
 Coeff-Com:  0.430D-01 0.468D+00 0.489D+00
 Coeff-En:   0.000D+00 0.000D+00 0.100D+01
 Coeff:      0.403D-01 0.438D+00 0.522D+00
 Gap=     0.244 Goal=   None    Shift=    0.000
 RMSDP=1.34D-03 MaxDP=1.69D-01 DE=-5.04D-01 OVMax= 6.78D-02

 Cycle   4  Pass 1  IDiag  1:
 RMSU=  1.21D-03    CP:  1.00D+00  3.90D-01  9.07D-01
 E= -1730.71899489046     Delta-E=       -0.092058096316 Rises=F Damp=F
 DIIS: error= 2.02D-03 at cycle   4 NSaved=   4.
 NSaved= 4 IEnMin= 4 EnMin= -1730.71899489046     IErMin= 4 ErrMin= 2.02D-03
 ErrMax= 2.02D-03  0.00D+00 EMaxC= 1.00D-01 BMatC= 1.45D-02 BMatP= 1.23D-01
 IDIUse=3 WtCom= 9.80D-01 WtEn= 2.02D-02
 Coeff-Com: -0.719D-02 0.614D-01 0.274D+00 0.672D+00
 Coeff-En:   0.000D+00 0.000D+00 0.108D+00 0.892D+00
 Coeff:     -0.705D-02 0.602D-01 0.270D+00 0.677D+00
 Gap=     0.236 Goal=   None    Shift=    0.000
 RMSDP=4.35D-04 MaxDP=4.55D-02 DE=-9.21D-02 OVMax= 2.05D-02

 Cycle   5  Pass 1  IDiag  1:
 RMSU=  2.22D-04    CP:  9.98D-01  3.66D-01  9.46D-01  7.40D-01
 E= -1730.73081562727     Delta-E=       -0.011820736807 Rises=F Damp=F
 DIIS: error= 3.69D-04 at cycle   5 NSaved=   5.
 NSaved= 5 IEnMin= 5 EnMin= -1730.73081562727     IErMin= 5 ErrMin= 3.69D-04
 ErrMax= 3.69D-04  0.00D+00 EMaxC= 1.00D-01 BMatC= 6.58D-04 BMatP= 1.45D-02
 IDIUse=3 WtCom= 9.96D-01 WtEn= 3.69D-03
 Coeff-Com: -0.471D-02 0.127D-01 0.113D+00 0.333D+00 0.546D+00
 Coeff-En:   0.000D+00 0.000D+00 0.000D+00 0.000D+00 0.100D+01
 Coeff:     -0.470D-02 0.127D-01 0.113D+00 0.332D+00 0.547D+00
 Gap=     0.237 Goal=   None    Shift=    0.000
 RMSDP=7.97D-05 MaxDP=7.81D-03 DE=-1.18D-02 OVMax= 5.10D-03

 Cycle   6  Pass 1  IDiag  1:
 RMSU=  5.94D-05    CP:  9.96D-01  3.65D-01  9.50D-01  7.32D-01  7.97D-01
 E= -1730.73135934905     Delta-E=       -0.000543721782 Rises=F Damp=F
 DIIS: error= 1.20D-04 at cycle   6 NSaved=   6.
 NSaved= 6 IEnMin= 6 EnMin= -1730.73135934905     IErMin= 6 ErrMin= 1.20D-04
 ErrMax= 1.20D-04  0.00D+00 EMaxC= 1.00D-01 BMatC= 4.80D-05 BMatP= 6.58D-04
 IDIUse=3 WtCom= 9.99D-01 WtEn= 1.20D-03
 Coeff-Com: -0.188D-02 0.182D-02 0.358D-01 0.113D+00 0.279D+00 0.572D+00
 Coeff-En:   0.000D+00 0.000D+00 0.000D+00 0.000D+00 0.000D+00 0.100D+01
 Coeff:     -0.188D-02 0.181D-02 0.358D-01 0.113D+00 0.279D+00 0.572D+00
 Gap=     0.235 Goal=   None    Shift=    0.000
 RMSDP=3.17D-05 MaxDP=6.33D-03 DE=-5.44D-04 OVMax= 1.54D-03

 Cycle   7  Pass 1  IDiag  1:
 RMSU=  2.37D-05    CP:  9.95D-01  3.63D-01  9.51D-01  7.37D-01  7.86D-01
                    CP:  7.70D-01
 E= -1730.73139305723     Delta-E=       -0.000033708180 Rises=F Damp=F
 DIIS: error= 4.29D-05 at cycle   7 NSaved=   7.
 NSaved= 7 IEnMin= 7 EnMin= -1730.73139305723     IErMin= 7 ErrMin= 4.29D-05
 ErrMax= 4.29D-05  0.00D+00 EMaxC= 1.00D-01 BMatC= 6.81D-06 BMatP= 4.80D-05
 IDIUse=1 WtCom= 1.00D+00 WtEn= 0.00D+00
 Coeff-Com: -0.829D-03 0.212D-03 0.139D-01 0.450D-01 0.137D+00 0.348D+00
 Coeff-Com:  0.456D+00
 Coeff:     -0.829D-03 0.212D-03 0.139D-01 0.450D-01 0.137D+00 0.348D+00
 Coeff:      0.456D+00
 Gap=     0.235 Goal=   None    Shift=    0.000
 RMSDP=1.16D-05 MaxDP=2.58D-03 DE=-3.37D-05 OVMax= 6.13D-04

 Cycle   8  Pass 1  IDiag  1:
 RMSU=  7.65D-06    CP:  9.95D-01  3.63D-01  9.51D-01  7.38D-01  7.86D-01
                    CP:  7.85D-01  7.24D-01
 E= -1730.73139815696     Delta-E=       -0.000005099722 Rises=F Damp=F
 DIIS: error= 1.42D-05 at cycle   8 NSaved=   8.
 NSaved= 8 IEnMin= 8 EnMin= -1730.73139815696     IErMin= 8 ErrMin= 1.42D-05
 ErrMax= 1.42D-05  0.00D+00 EMaxC= 1.00D-01 BMatC= 6.00D-07 BMatP= 6.81D-06
 IDIUse=1 WtCom= 1.00D+00 WtEn= 0.00D+00
 Coeff-Com: -0.114D-03-0.140D-03 0.126D-02 0.398D-02 0.282D-01 0.832D-01
 Coeff-Com:  0.245D+00 0.639D+00
 Coeff:     -0.114D-03-0.140D-03 0.126D-02 0.398D-02 0.282D-01 0.832D-01
 Coeff:      0.245D+00 0.639D+00
 Gap=     0.235 Goal=   None    Shift=    0.000
 RMSDP=4.11D-06 MaxDP=4.32D-04 DE=-5.10D-06 OVMax= 1.29D-04

 Cycle   9  Pass 1  IDiag  1:
 RMSU=  2.78D-06    CP:  9.95D-01  3.63D-01  9.52D-01  7.38D-01  7.94D-01
                    CP:  7.70D-01  7.24D-01  7.87D-01
 E= -1730.73139860715     Delta-E=       -0.000000450196 Rises=F Damp=F
 DIIS: error= 4.01D-06 at cycle   9 NSaved=   9.
 NSaved= 9 IEnMin= 9 EnMin= -1730.73139860715     IErMin= 9 ErrMin= 4.01D-06
 ErrMax= 4.01D-06  0.00D+00 EMaxC= 1.00D-01 BMatC= 6.72D-08 BMatP= 6.00D-07
 IDIUse=1 WtCom= 1.00D+00 WtEn= 0.00D+00
 Coeff-Com:  0.368D-04-0.104D-03-0.866D-03-0.306D-02-0.607D-03-0.669D-03
 Coeff-Com:  0.654D-01 0.324D+00 0.616D+00
 Coeff:      0.368D-04-0.104D-03-0.866D-03-0.306D-02-0.607D-03-0.669D-03
 Coeff:      0.654D-01 0.324D+00 0.616D+00
 Gap=     0.235 Goal=   None    Shift=    0.000
 RMSDP=1.28D-06 MaxDP=1.55D-04 DE=-4.50D-07 OVMax= 2.66D-05

 Cycle  10  Pass 1  IDiag  1:
 RMSU=  6.18D-07    CP:  9.95D-01  3.63D-01  9.52D-01  7.38D-01  7.95D-01
                    CP:  7.77D-01  7.36D-01  8.29D-01  7.74D-01
 E= -1730.73139866507     Delta-E=       -0.000000057916 Rises=F Damp=F
 DIIS: error= 9.23D-07 at cycle  10 NSaved=  10.
 NSaved=10 IEnMin=10 EnMin= -1730.73139866507     IErMin=10 ErrMin= 9.23D-07
 ErrMax= 9.23D-07  0.00D+00 EMaxC= 1.00D-01 BMatC= 2.72D-09 BMatP= 6.72D-08
 IDIUse=1 WtCom= 1.00D+00 WtEn= 0.00D+00
 Coeff-Com:  0.219D-04-0.379D-04-0.407D-03-0.148D-02-0.149D-02-0.499D-02
 Coeff-Com:  0.135D-01 0.102D+00 0.243D+00 0.649D+00
 Coeff:      0.219D-04-0.379D-04-0.407D-03-0.148D-02-0.149D-02-0.499D-02
 Coeff:      0.135D-01 0.102D+00 0.243D+00 0.649D+00
 Gap=     0.235 Goal=   None    Shift=    0.000
 RMSDP=4.63D-07 MaxDP=1.13D-04 DE=-5.79D-08 OVMax= 1.28D-05

 Cycle  11  Pass 1  IDiag  1:
 RMSU=  2.62D-07    CP:  9.95D-01  3.62D-01  9.52D-01  7.38D-01  7.95D-01
                    CP:  7.76D-01  7.41D-01  8.33D-01  7.89D-01  7.48D-01
 E= -1730.73139866641     Delta-E=       -0.000000001345 Rises=F Damp=F
 DIIS: error= 6.02D-07 at cycle  11 NSaved=  11.
 NSaved=11 IEnMin=11 EnMin= -1730.73139866641     IErMin=11 ErrMin= 6.02D-07
 ErrMax= 6.02D-07  0.00D+00 EMaxC= 1.00D-01 BMatC= 1.31D-09 BMatP= 2.72D-09
 IDIUse=1 WtCom= 1.00D+00 WtEn= 0.00D+00
 Coeff-Com:  0.963D-05-0.108D-04-0.146D-03-0.556D-03-0.878D-03-0.334D-02
 Coeff-Com: -0.382D-03 0.220D-01 0.695D-01 0.434D+00 0.480D+00
 Coeff:      0.963D-05-0.108D-04-0.146D-03-0.556D-03-0.878D-03-0.334D-02
 Coeff:     -0.382D-03 0.220D-01 0.695D-01 0.434D+00 0.480D+00
 Gap=     0.235 Goal=   None    Shift=    0.000
 RMSDP=1.59D-07 MaxDP=2.56D-05 DE=-1.35D-09 OVMax= 6.12D-06

 Cycle  12  Pass 1  IDiag  1:
 RMSU=  9.84D-08    CP:  9.95D-01  3.62D-01  9.52D-01  7.38D-01  7.95D-01
                    CP:  7.76D-01  7.41D-01  8.39D-01  7.89D-01  8.22D-01
                    CP:  6.52D-01
 E= -1730.73139866742     Delta-E=       -0.000000001010 Rises=F Damp=F
 DIIS: error= 1.42D-07 at cycle  12 NSaved=  12.
 NSaved=12 IEnMin=12 EnMin= -1730.73139866742     IErMin=12 ErrMin= 1.42D-07
 ErrMax= 1.42D-07  0.00D+00 EMaxC= 1.00D-01 BMatC= 7.95D-11 BMatP= 1.31D-09
 IDIUse=1 WtCom= 1.00D+00 WtEn= 0.00D+00
 Coeff-Com:  0.213D-05-0.911D-06-0.186D-04-0.919D-04-0.231D-03-0.107D-02
 Coeff-Com: -0.195D-02-0.236D-02 0.137D-02 0.137D+00 0.246D+00 0.622D+00
 Coeff:      0.213D-05-0.911D-06-0.186D-04-0.919D-04-0.231D-03-0.107D-02
 Coeff:     -0.195D-02-0.236D-02 0.137D-02 0.137D+00 0.246D+00 0.622D+00
 Gap=     0.235 Goal=   None    Shift=    0.000
 RMSDP=5.17D-08 MaxDP=9.23D-06 DE=-1.01D-09 OVMax= 1.45D-06

 Cycle  13  Pass 1  IDiag  1:
 RMSU=  2.96D-08    CP:  9.95D-01  3.62D-01  9.52D-01  7.38D-01  7.95D-01
                    CP:  7.76D-01  7.41D-01  8.39D-01  7.93D-01  8.42D-01
                    CP:  7.05D-01  7.10D-01
 E= -1730.73139866749     Delta-E=       -0.000000000072 Rises=F Damp=F
 DIIS: error= 6.06D-08 at cycle  13 NSaved=  13.
 NSaved=13 IEnMin=13 EnMin= -1730.73139866749     IErMin=13 ErrMin= 6.06D-08
 ErrMax= 6.06D-08  0.00D+00 EMaxC= 1.00D-01 BMatC= 1.27D-11 BMatP= 7.95D-11
 IDIUse=1 WtCom= 1.00D+00 WtEn= 0.00D+00
 Coeff-Com:  0.481D-08 0.767D-06 0.952D-05 0.201D-04-0.113D-04-0.172D-03
 Coeff-Com: -0.106D-02-0.420D-02-0.865D-02 0.218D-01 0.790D-01 0.354D+00
 Coeff-Com:  0.560D+00
 Coeff:      0.481D-08 0.767D-06 0.952D-05 0.201D-04-0.113D-04-0.172D-03
 Coeff:     -0.106D-02-0.420D-02-0.865D-02 0.218D-01 0.790D-01 0.354D+00
 Coeff:      0.560D+00
 Gap=     0.235 Goal=   None    Shift=    0.000
 RMSDP=1.57D-08 MaxDP=1.97D-06 DE=-7.19D-11 OVMax= 4.53D-07

 Cycle  14  Pass 1  IDiag  1:
 RMSU=  1.11D-08    CP:  9.95D-01  3.62D-01  9.52D-01  7.38D-01  7.95D-01
                    CP:  7.76D-01  7.41D-01  8.39D-01  7.93D-01  8.49D-01
                    CP:  7.07D-01  7.23D-01  7.46D-01
 E= -1730.73139866751     Delta-E=       -0.000000000020 Rises=F Damp=F
 DIIS: error= 1.11D-08 at cycle  14 NSaved=  14.
 NSaved=14 IEnMin=14 EnMin= -1730.73139866751     IErMin=14 ErrMin= 1.11D-08
 ErrMax= 1.11D-08  0.00D+00 EMaxC= 1.00D-01 BMatC= 5.90D-13 BMatP= 1.27D-11
 IDIUse=1 WtCom= 1.00D+00 WtEn= 0.00D+00
 Coeff-Com: -0.124D-06 0.313D-06 0.586D-05 0.155D-04 0.146D-04 0.156D-04
 Coeff-Com: -0.281D-03-0.158D-02-0.380D-02-0.231D-02 0.127D-01 0.982D-01
 Coeff-Com:  0.237D+00 0.660D+00
 Coeff:     -0.124D-06 0.313D-06 0.586D-05 0.155D-04 0.146D-04 0.156D-04
 Coeff:     -0.281D-03-0.158D-02-0.380D-02-0.231D-02 0.127D-01 0.982D-01
 Coeff:      0.237D+00 0.660D+00
 Gap=     0.235 Goal=   None    Shift=    0.000
 RMSDP=4.20D-09 MaxDP=4.39D-07 DE=-2.00D-11 OVMax= 1.08D-07

 SCF Done:  E(RPBE1PBE) =  -1730.73139867     A.U. after   14 cycles
            NFock= 14  Conv=0.42D-08     -V/T= 2.0091
 KE= 1.715152512739D+03 PE=-1.098638611381D+04 EE= 4.064588015273D+03
 Leave Link  502 at Mon Jan 31 11:27:29 2022, MaxMem=  8589934592 cpu:            2330.7 elap:              97.4
 (Enter /share/apps/g16.b01_avx2/g16/l601.exe)
 Copying SCF densities to generalized density rwf, IOpCl= 0 IROHF=0.

 **********************************************************************

            Population analysis using the SCF Density.

 **********************************************************************

 Orbital symmetries:
       Occupied  (A) (A) (A) (A) (A) (A) (A) (A) (A) (A) (A) (A)
                 (A) (A) (A) (A) (A) (A) (A) (A) (A) (A) (A) (A)
                 (A) (A) (A) (A) (A) (A) (A) (A) (A) (A) (A) (A)
                 (A) (A) (A) (A) (A) (A) (A) (A) (A) (A) (A) (A)
                 (A) (A) (A) (A) (A) (A) (A) (A) (A) (A) (A) (A)
                 (A) (A) (A) (A) (A) (A) (A) (A) (A) (A) (A) (A)
                 (A) (A) (A) (A) (A) (A) (A) (A) (A) (A) (A) (A)
                 (A) (A) (A) (A) (A) (A) (A) (A) (A) (A) (A) (A)
                 (A) (A) (A) (A) (A) (A) (A) (A) (A) (A) (A) (A)
                 (A) (A) (A) (A) (A) (A) (A) (A) (A) (A) (A) (A)
                 (A) (A) (A) (A) (A) (A) (A) (A) (A) (A) (A) (A)
                 (A) (A)
       Virtual   (A) (A) (A) (A) (A) (A) (A) (A) (A) (A) (A) (A)
                 (A) (A) (A) (A) (A) (A) (A) (A) (A) (A) (A) (A)
                 (A) (A) (A) (A) (A) (A) (A) (A) (A) (A) (A) (A)
                 (A) (A) (A) (A) (A) (A) (A) (A) (A) (A) (A) (A)
                 (A) (A) (A) (A) (A) (A) (A) (A) (A) (A) (A) (A)
                 (A) (A) (A) (A) (A) (A) (A) (A) (A) (A) (A) (A)
                 (A) (A) (A) (A) (A) (A) (A) (A) (A) (A) (A) (A)
                 (A) (A) (A) (A) (A) (A) (A) (A) (A) (A) (A) (A)
                 (A) (A) (A) (A) (A) (A) (A) (A) (A) (A) (A) (A)
                 (A) (A) (A) (A) (A) (A) (A) (A) (A) (A) (A) (A)
                 (A) (A) (A) (A) (A) (A) (A) (A) (A) (A) (A) (A)
                 (A) (A) (A) (A) (A) (A) (A) (A) (A) (A) (A) (A)
                 (A) (A) (A) (A) (A) (A) (A) (A) (A) (A) (A) (A)
                 (A) (A) (A) (A) (A) (A) (A) (A) (A) (A) (A) (A)
                 (A) (A) (A) (A) (A) (A) (A) (A) (A) (A) (A) (A)
                 (A) (A) (A) (A) (A) (A) (A) (A) (A) (A) (A) (A)
                 (A) (A) (A) (A) (A) (A) (A) (A) (A) (A) (A) (A)
                 (A) (A) (A) (A) (A) (A) (A) (A) (A) (A) (A) (A)
                 (A) (A) (A) (A) (A) (A) (A) (A) (A) (A) (A) (A)
                 (A) (A) (A) (A) (A) (A) (A) (A) (A) (A) (A) (A)
                 (A) (A) (A) (A) (A) (A) (A) (A) (A) (A) (A) (A)
                 (A) (A) (A) (A) (A) (A) (A) (A) (A) (A) (A) (A)
                 (A) (A) (A) (A) (A) (A) (A) (A) (A) (A) (A) (A)
                 (A) (A) (A) (A) (A) (A) (A) (A) (A) (A) (A) (A)
                 (A) (A) (A) (A) (A) (A) (A) (A) (A) (A) (A) (A)
                 (A) (A) (A) (A) (A) (A) (A) (A) (A) (A) (A) (A)
                 (A) (A) (A) (A) (A) (A) (A) (A) (A) (A) (A) (A)
                 (A) (A) (A) (A) (A) (A) (A) (A) (A) (A) (A) (A)
                 (A) (A) (A) (A) (A) (A) (A) (A) (A) (A) (A) (A)
                 (A) (A) (A) (A) (A) (A) (A) (A) (A) (A) (A) (A)
                 (A) (A) (A) (A) (A) (A) (A) (A) (A) (A) (A) (A)
                 (A) (A) (A) (A) (A) (A) (A) (A) (A) (A) (A) (A)
                 (A) (A) (A) (A) (A) (A) (A) (A) (A) (A) (A) (A)
                 (A) (A) (A) (A) (A) (A) (A) (A) (A) (A) (A) (A)
                 (A) (A) (A) (A) (A) (A) (A) (A) (A) (A) (A) (A)
                 (A) (A) (A) (A) (A) (A) (A) (A) (A) (A) (A) (A)
                 (A) (A) (A) (A) (A) (A) (A) (A) (A) (A) (A) (A)
                 (A) (A) (A) (A) (A) (A) (A) (A) (A) (A) (A) (A)
                 (A) (A) (A) (A) (A) (A) (A) (A) (A) (A) (A) (A)
                 (A) (A) (A) (A) (A) (A) (A) (A) (A) (A) (A) (A)
                 (A) (A) (A) (A) (A) (A) (A) (A) (A) (A) (A) (A)
                 (A) (A) (A) (A) (A) (A) (A) (A) (A) (A) (A) (A)
                 (A) (A) (A) (A) (A) (A) (A) (A) (A) (A) (A) (A)
                 (A) (A) (A) (A) (A) (A) (A) (A) (A) (A) (A) (A)
                 (A) (A) (A) (A) (A) (A) (A) (A) (A) (A) (A) (A)
                 (A) (A) (A) (A) (A) (A) (A) (A) (A) (A) (A) (A)
                 (A) (A) (A) (A) (A) (A) (A) (A) (A) (A) (A) (A)
                 (A) (A) (A) (A) (A) (A) (A) (A) (A) (A) (A) (A)
                 (A) (A) (A) (A) (A) (A) (A) (A) (A) (A) (A) (A)
                 (A) (A) (A) (A) (A) (A) (A) (A) (A) (A) (A) (A)
                 (A) (A) (A) (A) (A) (A) (A) (A) (A) (A) (A) (A)
                 (A) (A) (A) (A) (A) (A) (A) (A) (A) (A) (A) (A)
                 (A) (A) (A) (A) (A) (A) (A) (A) (A) (A) (A) (A)
                 (A) (A) (A) (A) (A) (A) (A) (A) (A) (A) (A) (A)
                 (A) (A) (A) (A) (A) (A) (A) (A) (A) (A) (A) (A)
                 (A) (A) (A) (A) (A) (A) (A) (A) (A) (A) (A) (A)
                 (A) (A) (A) (A) (A) (A) (A) (A) (A) (A) (A) (A)
                 (A) (A) (A) (A) (A) (A) (A) (A) (A) (A) (A) (A)
                 (A) (A) (A) (A) (A) (A) (A) (A) (A) (A) (A) (A)
                 (A) (A) (A) (A) (A) (A) (A) (A)
 The electronic state is 1-A.
 Alpha  occ. eigenvalues --  -19.23321 -19.22941 -19.22389 -19.21966 -19.21420
 Alpha  occ. eigenvalues --  -19.20632 -19.18254 -14.46760 -14.45583 -14.45025
 Alpha  occ. eigenvalues --  -14.44574 -14.44079 -14.43345 -14.41911 -10.37259
 Alpha  occ. eigenvalues --  -10.36750 -10.36207 -10.35776 -10.35237 -10.34431
 Alpha  occ. eigenvalues --  -10.32933 -10.31771 -10.31080 -10.30623 -10.30168
 Alpha  occ. eigenvalues --  -10.29577 -10.29167 -10.28435 -10.25771 -10.24963
 Alpha  occ. eigenvalues --  -10.24595 -10.24140 -10.23633 -10.23078 -10.22704
 Alpha  occ. eigenvalues --   -1.10416  -1.09721  -1.09193  -1.08656  -1.08068
 Alpha  occ. eigenvalues --   -1.07229  -1.05033  -0.98394  -0.98166  -0.97600
 Alpha  occ. eigenvalues --   -0.97139  -0.96625  -0.95887  -0.94219  -0.84276
 Alpha  occ. eigenvalues --   -0.82987  -0.81628  -0.80169  -0.78749  -0.77424
 Alpha  occ. eigenvalues --   -0.75726  -0.74006  -0.71429  -0.70689  -0.69977
 Alpha  occ. eigenvalues --   -0.69096  -0.67824  -0.65667  -0.64397  -0.62765
 Alpha  occ. eigenvalues --   -0.62243  -0.61557  -0.60970  -0.60298  -0.60038
 Alpha  occ. eigenvalues --   -0.58902  -0.57881  -0.55383  -0.52948  -0.52784
 Alpha  occ. eigenvalues --   -0.52067  -0.51558  -0.51166  -0.50648  -0.50000
 Alpha  occ. eigenvalues --   -0.49919  -0.49456  -0.49091  -0.48348  -0.47752
 Alpha  occ. eigenvalues --   -0.47476  -0.46990  -0.46855  -0.46485  -0.46115
 Alpha  occ. eigenvalues --   -0.45993  -0.45805  -0.45253  -0.44628  -0.44474
 Alpha  occ. eigenvalues --   -0.43964  -0.43612  -0.43461  -0.43136  -0.42258
 Alpha  occ. eigenvalues --   -0.42142  -0.41714  -0.41370  -0.41224  -0.40827
 Alpha  occ. eigenvalues --   -0.40776  -0.40624  -0.40517  -0.40167  -0.40077
 Alpha  occ. eigenvalues --   -0.39629  -0.39350  -0.38938  -0.38846  -0.38654
 Alpha  occ. eigenvalues --   -0.38087  -0.37535  -0.37471  -0.36731  -0.34990
 Alpha  occ. eigenvalues --   -0.31001  -0.30751  -0.30225  -0.30006  -0.29704
 Alpha  occ. eigenvalues --   -0.29383  -0.29177  -0.28773  -0.28579  -0.28082
 Alpha  occ. eigenvalues --   -0.27778  -0.27268  -0.25739  -0.25545
 Alpha virt. eigenvalues --   -0.02028  -0.00962  -0.00633  -0.00236   0.00292
 Alpha virt. eigenvalues --    0.00866   0.00975   0.01266   0.01535   0.01715
 Alpha virt. eigenvalues --    0.01892   0.02168   0.02351   0.02487   0.02861
 Alpha virt. eigenvalues --    0.03099   0.03329   0.03863   0.03927   0.04411
 Alpha virt. eigenvalues --    0.04421   0.04915   0.05040   0.05371   0.05492
 Alpha virt. eigenvalues --    0.05539   0.05845   0.06121   0.06469   0.06731
 Alpha virt. eigenvalues --    0.06934   0.07060   0.07216   0.07372   0.07702
 Alpha virt. eigenvalues --    0.07936   0.08182   0.08303   0.08464   0.08751
 Alpha virt. eigenvalues --    0.09239   0.09408   0.09515   0.09798   0.09996
 Alpha virt. eigenvalues --    0.10104   0.10359   0.10765   0.11074   0.11269
 Alpha virt. eigenvalues --    0.11276   0.11492   0.11599   0.11782   0.11983
 Alpha virt. eigenvalues --    0.12156   0.12286   0.12549   0.12758   0.13008
 Alpha virt. eigenvalues --    0.13464   0.13747   0.14060   0.14169   0.14481
 Alpha virt. eigenvalues --    0.14761   0.14896   0.15068   0.15214   0.15403
 Alpha virt. eigenvalues --    0.15650   0.15703   0.16002   0.16221   0.16452
 Alpha virt. eigenvalues --    0.16935   0.17013   0.17105   0.17514   0.17610
 Alpha virt. eigenvalues --    0.17852   0.17987   0.18188   0.18541   0.18738
 Alpha virt. eigenvalues --    0.19046   0.19083   0.19317   0.19450   0.19594
 Alpha virt. eigenvalues --    0.19976   0.20116   0.20397   0.20439   0.20520
 Alpha virt. eigenvalues --    0.20739   0.21196   0.21272   0.21498   0.21749
 Alpha virt. eigenvalues --    0.21881   0.22220   0.22580   0.22809   0.22856
 Alpha virt. eigenvalues --    0.23169   0.23454   0.23629   0.23782   0.23987
 Alpha virt. eigenvalues --    0.24052   0.24338   0.24420   0.24516   0.24638
 Alpha virt. eigenvalues --    0.24822   0.24997   0.25290   0.25359   0.25584
 Alpha virt. eigenvalues --    0.25922   0.26108   0.26139   0.26559   0.26657
 Alpha virt. eigenvalues --    0.26832   0.27002   0.27232   0.27662   0.27853
 Alpha virt. eigenvalues --    0.27951   0.28222   0.28446   0.28749   0.28809
 Alpha virt. eigenvalues --    0.29040   0.29339   0.29579   0.29821   0.30002
 Alpha virt. eigenvalues --    0.30144   0.30484   0.30535   0.31005   0.31138
 Alpha virt. eigenvalues --    0.31328   0.31365   0.31578   0.32112   0.32329
 Alpha virt. eigenvalues --    0.32774   0.33041   0.33185   0.33649   0.33772
 Alpha virt. eigenvalues --    0.34205   0.34298   0.34561   0.34728   0.34883
 Alpha virt. eigenvalues --    0.35085   0.35217   0.35489   0.35889   0.35970
 Alpha virt. eigenvalues --    0.36279   0.36518   0.36760   0.36988   0.37074
 Alpha virt. eigenvalues --    0.37508   0.37722   0.37937   0.38137   0.38390
 Alpha virt. eigenvalues --    0.38674   0.38917   0.39262   0.39471   0.39663
 Alpha virt. eigenvalues --    0.40414   0.40625   0.40990   0.41159   0.41766
 Alpha virt. eigenvalues --    0.41968   0.42403   0.42556   0.43064   0.43295
 Alpha virt. eigenvalues --    0.43663   0.44094   0.44325   0.44574   0.44903
 Alpha virt. eigenvalues --    0.45090   0.45629   0.45902   0.46129   0.47016
 Alpha virt. eigenvalues --    0.47377   0.47745   0.48107   0.48320   0.48864
 Alpha virt. eigenvalues --    0.49157   0.49399   0.49497   0.49826   0.50211
 Alpha virt. eigenvalues --    0.50448   0.50541   0.53042   0.53584   0.54118
 Alpha virt. eigenvalues --    0.55087   0.55919   0.56737   0.64347   0.64988
 Alpha virt. eigenvalues --    0.65800   0.66912   0.67159   0.67251   0.67618
 Alpha virt. eigenvalues --    0.67886   0.68421   0.68595   0.69176   0.69228
 Alpha virt. eigenvalues --    0.69894   0.70653   0.70719   0.71556   0.71663
 Alpha virt. eigenvalues --    0.71909   0.72166   0.72955   0.73552   0.73614
 Alpha virt. eigenvalues --    0.74209   0.74570   0.75053   0.75371   0.75837
 Alpha virt. eigenvalues --    0.76319   0.76568   0.77034   0.77271   0.77299
[...]
 GradGradGradGradGradGradGradGradGradGradGradGradGradGradGradGradGradGrad

 Leave Link  103 at Mon Jan 31 11:31:31 2022, MaxMem=  8589934592 cpu:               2.4 elap:               0.1
 (Enter /share/apps/g16.b01_avx2/g16/l202.exe)
 Stoichiometry    C21H37N7O7
 Framework group  C1[X(C21H37N7O7)]
 Deg. of freedom   210
 Full point group                 C1      NOp   1
 RotChk:  IX=0 Diff= 2.31D-03
 Largest Abelian subgroup         C1      NOp   1
 Largest concise Abelian subgroup C1      NOp   1
                         Standard orientation:                         
 ---------------------------------------------------------------------
 Center     Atomic      Atomic             Coordinates (Angstroms)
 Number     Number       Type             X           Y           Z
 ---------------------------------------------------------------------
      1          6           0        5.464554   -0.638517    0.005756
      2          7           0        4.258125    0.109360   -0.258631
      3          1           0        4.401821    1.009503   -0.704352
      4          6           0        3.055906   -0.282714    0.193235
      5          8           0        2.877756   -1.335482    0.805411
      6          6           0        1.902823    0.686981   -0.072265
      7          7           0        0.686641   -0.022684    0.246157
      8          1           0        0.819562   -0.893674    0.749613
      9          6           0        6.631324    0.327057   -0.207526
     10          8           0        6.466682    1.422284   -0.744830
     11          7           0        7.831660   -0.113019    0.204224
     12          1           0        7.966780   -1.040678    0.592307
     13          6           0        9.043889    0.636852   -0.022066
     14          6           0       10.202132   -0.358635    0.084987
     15          8           0       10.037291   -1.469427    0.580206
     16          7           0       11.392150    0.092199   -0.364878
     17          1           0       11.431800    1.013224   -0.772636
     18          1           0        5.449551   -0.962714    1.054859
     19          1           0        9.004480    1.052433   -1.038005
     20          6           0       -1.677246   -0.576867    0.104832
     21          7           0       -2.884587    0.127391   -0.255612
     22          1           0       -2.742236    0.961325   -0.815764
     23          6           0       -4.086916   -0.204259    0.243580
     24          8           0       -4.262656   -1.169029    0.987209
     25          6           0       -5.239983    0.721789   -0.146091
     26          7           0       -6.458724    0.057574    0.247743
     27          1           0       -6.335133   -0.740170    0.861827
     28          6           0       -7.652885    0.373055   -0.284350
     29          8           0       -7.803957    1.292776   -1.088326
     30          6           0       -0.511188    0.355535   -0.228513
     31          8           0       -0.675899    1.368576   -0.908143
     32          1           0       -1.694536   -0.764682    1.186610
     33          1           0       -5.252083    0.849735   -1.236614
     34          6           0       12.609805   -0.685096   -0.287768
     35          1           0       12.366218   -1.641239    0.176832
     36          1           0       13.019878   -0.869897   -1.285349
     37          1           0       13.362601   -0.174785    0.321069
     38          6           0       -8.819487   -0.513882    0.148392
     39          1           0       -8.835302   -0.588339    1.244106
     40          1           0       -9.904749    0.904802   -0.929922
     41          6           0      -11.234604   -0.158891    0.265128
     42          6           0      -12.409679    0.640271   -0.247995
     43          1           0      -12.139585    1.386347   -0.999769
     44          1           0      -13.140570   -0.051357   -0.675026
     45          1           0      -12.887187    1.138510    0.599627
     46          8           0      -11.368941   -1.029922    1.119695
     47          7           0      -10.031122    0.138820   -0.279802
     48          6           0       -8.690275   -1.924911   -0.435326
     49          1           0       -8.652223   -1.881310   -1.528142
     50          1           0       -7.787862   -2.427312   -0.073500
     51          1           0       -9.559623   -2.511302   -0.129436
     52          6           0       -5.099169    2.098427    0.510474
     53          1           0       -5.064362    1.997925    1.599466
     54          1           0       -4.190501    2.608926    0.177282
     55          1           0       -5.960651    2.711049    0.235290
     56          6           0       -1.553823   -1.915973   -0.627585
     57          1           0       -1.511642   -1.755146   -1.709034
     58          1           0       -0.654533   -2.457786   -0.319692
     59          1           0       -2.424927   -2.530986   -0.390898
     60          6           0        2.047896    1.972188    0.747433
     61          1           0        2.093900    1.738816    1.815394
     62          1           0        2.952573    2.521801    0.470772
     63          1           0        1.183840    2.613080    0.558145
     64          6           0        5.582889   -1.873185   -0.892089
     65          1           0        5.625092   -1.575817   -1.944176
     66          1           0        6.480094   -2.453357   -0.656842
     67          1           0        4.709920   -2.510542   -0.735012
     68          6           0        9.197271    1.786367    0.978279
     69          1           0        8.331096    2.446766    0.895754
     70          1           0        9.255853    1.396719    1.998770
     71          1           0       10.098334    2.374265    0.778125
     72          1           0        1.883684    0.946630   -1.138986
 ---------------------------------------------------------------------
 Rotational constants (GHZ):           0.6299571           0.0189413           0.0186343
 Leave Link  202 at Mon Jan 31 11:31:31 2022, MaxMem=  8589934592 cpu:               0.0 elap:               0.0
 (Enter /share/apps/g16.b01_avx2/g16/l301.exe)
 Standard basis: 6-31+G(d,p) (6D, 7F)
 Ernie: Thresh=  0.10000D-02 Tol=  0.10000D-05 Strict=F.
 There are   850 symmetry adapted cartesian basis functions of A   symmetry.
 There are   850 symmetry adapted basis functions of A   symmetry.
   850 basis functions,  1379 primitive gaussians,   850 cartesian basis functions
   134 alpha electrons      134 beta electrons
       nuclear repulsion energy      3495.8412649458 Hartrees.
 IExCor= 1009 DFT=T Ex+Corr=PBE1PBE ExCW=0 ScaHFX=  0.250000
 ScaDFX=  0.750000  0.750000  1.000000  1.000000 ScalE2=  1.000000  1.000000
 IRadAn=  99590 IRanWt=     -1 IRanGd=            0 ICorTp=0 IEmpDi=131
 NAtoms=   72 NActive=   72 NUniq=   72 SFac= 1.00D+00 NAtFMM=   60 NAOKFM=T Big=T
 Integral buffers will be    131072 words long.
 Raffenetti 2 integral format.
 Two-electron integral symmetry is turned on.
 R6Disp:  Grimme-D3 Dispersion energy=       -0.0481895527 Hartrees.
 Nuclear repulsion after empirical dispersion term =     3495.7930753931 Hartrees.
 Leave Link  301 at Mon Jan 31 11:31:31 2022, MaxMem=  8589934592 cpu:               0.6 elap:               0.0
 (Enter /share/apps/g16.b01_avx2/g16/l302.exe)
 NPDir=0 NMtPBC=     1 NCelOv=     1 NCel=       1 NClECP=     1 NCelD=      1
         NCelK=      1 NCelE2=     1 NClLst=     1 CellRange=     0.0.
 One-electron integrals computed using PRISM.
 One-electron integral symmetry used in STVInt
 NBasis=   850 RedAO= T EigKep=  4.36D-06  NBF=   850
 NBsUse=   850 1.00D-06 EigRej= -1.00D+00 NBFU=   850
 Precomputing XC quadrature grid using
 IXCGrd= 4 IRadAn=       99590 IRanWt=          -1 IRanGd=           0 AccXCQ= 0.00D+00.
 Generated NRdTot=       0 NPtTot=           0 NUsed=           0 NTot=          32
 NSgBfM=   698   698   698   698   698 MxSgAt=    72 MxSgA2=    72.
 Leave Link  302 at Mon Jan 31 11:31:32 2022, MaxMem=  8589934592 cpu:              25.0 elap:               1.0
 (Enter /share/apps/g16.b01_avx2/g16/l303.exe)
 DipDrv:  MaxL=1.
 Leave Link  303 at Mon Jan 31 11:31:32 2022, MaxMem=  8589934592 cpu:               1.3 elap:               0.1
 (Enter /share/apps/g16.b01_avx2/g16/l401.exe)
 Initial guess from the checkpoint file:  "/scratch/Gau-651067.chk"
 B after Tr=    -0.000000    0.000000   -0.000000
         Rot=    1.000000   -0.000395    0.000005   -0.000014 Ang=  -0.05 deg.
 Guess basis will be translated and rotated to current coordinates.
 JPrj=2 DoOrth=T DoCkMO=T.
 Generating alternative initial guess.
 ExpMin= 4.38D-02 ExpMax= 5.48D+03 ExpMxC= 8.25D+02 IAcc=4 IRadAn=    199590 AccDes= 0.00D+00
 Harris functional with IExCor= 1009 and IRadAn=  199590 diagonalized for initial guess.
 HarFok:  IExCor= 1009 AccDes= 0.00D+00 IRadAn=    199590 IDoV= 1 UseB2=F ITyADJ=14
 ICtDFT=  3500011 ScaDFX=  1.000000  1.000000  1.000000  1.000000
 FoFCou: FMM=F IPFlag=           0 FMFlag=      100000 FMFlg1=        2001
         NFxFlg=           0 DoJE=T BraDBF=F KetDBF=T FulRan=T
         wScrn=  0.000000 ICntrl=       500 IOpCl=  0 I1Cent=   200000004 NGrid=           0
         NMat0=    1 NMatS0=      1 NMatT0=    0 NMatD0=    1 NMtDS0=    0 NMtDT0=    0
 Petite list used in FoFCou.
 Harris En= -1731.10243502309    
 Leave Link  401 at Mon Jan 31 11:31:38 2022, MaxMem=  8589934592 cpu:             149.0 elap:               6.2
 (Enter /share/apps/g16.b01_avx2/g16/l502.exe)
 Integral symmetry usage will be decided dynamically.
 Closed shell SCF:
 Using DIIS extrapolation, IDIIS=  1040.
 NGot=  8589934592 LenX=  8588460558 LenY=  8587737208
 Requested convergence on RMS density matrix=1.00D-08 within 128 cycles.
 Requested convergence on MAX density matrix=1.00D-06.
 Requested convergence on             energy=1.00D-06.
 No special actions if energy rises.
 Fock matrices will be formed incrementally for  20 cycles.

 Cycle   1  Pass 1  IDiag  1:
 FoFJK:  IHMeth= 1 ICntrl=       0 DoSepK=F KAlg= 0 I1Cent=           0 FoldK=F
 IRaf= 660000000 NMat=       1 IRICut=       1 DoRegI=T DoRafI=F ISym2E= 0 IDoP0=0 IntGTp=1.
 FoFCou: FMM=T IPFlag=           0 FMFlag=      100000 FMFlg1=        2001
         NFxFlg=           0 DoJE=F BraDBF=F KetDBF=F FulRan=T
         wScrn=  0.000000 ICntrl=         0 IOpCl=  0 I1Cent=           0 NGrid=           0
         NMat0=    1 NMatS0=      1 NMatT0=    0 NMatD0=    1 NMtDS0=    0 NMtDT0=    0
 Symmetry not used in FoFCou.
 FMM levels:  10  Number of levels for PrismC:   9
 E= -1730.73285812912    
 DIIS: error= 3.64D-04 at cycle   1 NSaved=   1.
 NSaved= 1 IEnMin= 1 EnMin= -1730.73285812912     IErMin= 1 ErrMin= 3.64D-04
 ErrMax= 3.64D-04  0.00D+00 EMaxC= 1.00D-01 BMatC= 5.88D-04 BMatP= 5.88D-04
 IDIUse=3 WtCom= 9.96D-01 WtEn= 3.64D-03
 Coeff-Com:  0.100D+01
 Coeff-En:   0.100D+01
 Coeff:      0.100D+01
 Gap=     0.476 Goal=   None    Shift=    0.000
 RMSDP=2.89D-04 MaxDP=4.36D-02              OVMax= 4.55D-03

 Cycle   2  Pass 1  IDiag  1:
 RMSU=  2.77D-04    CP:  9.95D-01
 E= -1730.73380230146     Delta-E=       -0.000944172336 Rises=F Damp=F
 DIIS: error= 6.03D-05 at cycle   2 NSaved=   2.
 NSaved= 2 IEnMin= 2 EnMin= -1730.73380230146     IErMin= 2 ErrMin= 6.03D-05
 ErrMax= 6.03D-05  0.00D+00 EMaxC= 1.00D-01 BMatC= 1.12D-05 BMatP= 5.88D-04
 IDIUse=1 WtCom= 1.00D+00 WtEn= 0.00D+00
 Coeff-Com: -0.526D-01 0.105D+01
 Coeff:     -0.526D-01 0.105D+01
 Gap=     0.237 Goal=   None    Shift=    0.000
 RMSDP=3.10D-05 MaxDP=4.70D-03 DE=-9.44D-04 OVMax= 1.43D-03

 Cycle   3  Pass 1  IDiag  1:
 RMSU=  2.96D-05    CP:  9.95D-01  1.03D+00
 E= -1730.73380663355     Delta-E=       -0.000004332091 Rises=F Damp=F
 DIIS: error= 1.36D-04 at cycle   3 NSaved=   3.
 NSaved= 3 IEnMin= 3 EnMin= -1730.73380663355     IErMin= 2 ErrMin= 6.03D-05
 ErrMax= 1.36D-04  0.00D+00 EMaxC= 1.00D-01 BMatC= 1.56D-05 BMatP= 1.12D-05
 IDIUse=3 WtCom= 4.62D-01 WtEn= 5.38D-01
 Coeff-Com: -0.419D-01 0.605D+00 0.437D+00
 Coeff-En:   0.000D+00 0.369D+00 0.631D+00
 Coeff:     -0.193D-01 0.478D+00 0.541D+00
 Gap=     0.237 Goal=   None    Shift=    0.000
 RMSDP=2.02D-05 MaxDP=4.86D-03 DE=-4.33D-06 OVMax= 1.04D-03

 Cycle   4  Pass 1  IDiag  1:
 RMSU=  1.47D-05    CP:  9.95D-01  1.03D+00  6.17D-01
 E= -1730.73381402947     Delta-E=       -0.000007395923 Rises=F Damp=F
 DIIS: error= 9.15D-05 at cycle   4 NSaved=   4.
 NSaved= 4 IEnMin= 4 EnMin= -1730.73381402947     IErMin= 2 ErrMin= 6.03D-05
 ErrMax= 9.15D-05  0.00D+00 EMaxC= 1.00D-01 BMatC= 6.39D-06 BMatP= 1.12D-05
 IDIUse=1 WtCom= 1.00D+00 WtEn= 0.00D+00
 Coeff-Com: -0.135D-01 0.143D+00 0.383D+00 0.487D+00
 Coeff:     -0.135D-01 0.143D+00 0.383D+00 0.487D+00
 Gap=     0.237 Goal=   None    Shift=    0.000
 RMSDP=1.13D-05 MaxDP=3.20D-03 DE=-7.40D-06 OVMax= 4.65D-04

 Cycle   5  Pass 1  IDiag  1:
 RMSU=  4.95D-06    CP:  9.95D-01  1.04D+00  7.08D-01  5.00D-01
 E= -1730.73381896359     Delta-E=       -0.000004934113 Rises=F Damp=F
 DIIS: error= 5.24D-06 at cycle   5 NSaved=   5.
 NSaved= 5 IEnMin= 5 EnMin= -1730.73381896359     IErMin= 5 ErrMin= 5.24D-06
 ErrMax= 5.24D-06  0.00D+00 EMaxC= 1.00D-01 BMatC= 7.94D-08 BMatP= 6.39D-06
 IDIUse=1 WtCom= 1.00D+00 WtEn= 0.00D+00
 Coeff-Com: -0.274D-02 0.148D-01 0.141D+00 0.223D+00 0.625D+00
 Coeff:     -0.274D-02 0.148D-01 0.141D+00 0.223D+00 0.625D+00
 Gap=     0.237 Goal=   None    Shift=    0.000
 RMSDP=1.57D-06 MaxDP=2.14D-04 DE=-4.93D-06 OVMax= 4.15D-05

 Cycle   6  Pass 1  IDiag  1:
 RMSU=  1.02D-06    CP:  9.95D-01  1.04D+00  7.28D-01  5.46D-01  8.79D-01
 E= -1730.73381902799     Delta-E=       -0.000000064406 Rises=F Damp=F
 DIIS: error= 1.52D-06 at cycle   6 NSaved=   6.
 NSaved= 6 IEnMin= 6 EnMin= -1730.73381902799     IErMin= 6 ErrMin= 1.52D-06
 ErrMax= 1.52D-06  0.00D+00 EMaxC= 1.00D-01 BMatC= 1.00D-08 BMatP= 7.94D-08
 IDIUse=1 WtCom= 1.00D+00 WtEn= 0.00D+00
 Coeff-Com:  0.540D-03-0.141D-01 0.190D-01 0.479D-01 0.309D+00 0.637D+00
 Coeff:      0.540D-03-0.141D-01 0.190D-01 0.479D-01 0.309D+00 0.637D+00
 Gap=     0.237 Goal=   None    Shift=    0.000
 RMSDP=5.64D-07 MaxDP=8.20D-05 DE=-6.44D-08 OVMax= 1.80D-05

 Cycle   7  Pass 1  IDiag  1:
 RMSU=  3.05D-07    CP:  9.95D-01  1.04D+00  7.35D-01  5.53D-01  8.52D-01
                    CP:  7.23D-01
 E= -1730.73381903671     Delta-E=       -0.000000008718 Rises=F Damp=F
 DIIS: error= 4.06D-07 at cycle   7 NSaved=   7.
 NSaved= 7 IEnMin= 7 EnMin= -1730.73381903671     IErMin= 7 ErrMin= 4.06D-07
 ErrMax= 4.06D-07  0.00D+00 EMaxC= 1.00D-01 BMatC= 6.07D-10 BMatP= 1.00D-08
 IDIUse=1 WtCom= 1.00D+00 WtEn= 0.00D+00
 Coeff-Com:  0.387D-03-0.750D-02 0.231D-02 0.119D-01 0.116D+00 0.300D+00
 Coeff-Com:  0.577D+00
 Coeff:      0.387D-03-0.750D-02 0.231D-02 0.119D-01 0.116D+00 0.300D+00
 Coeff:      0.577D+00
 Gap=     0.237 Goal=   None    Shift=    0.000
 RMSDP=1.38D-07 MaxDP=2.18D-05 DE=-8.72D-09 OVMax= 5.39D-06

 Cycle   8  Pass 1  IDiag  1:
 RMSU=  1.24D-07    CP:  9.95D-01  1.04D+00  7.36D-01  5.55D-01  8.57D-01
                    CP:  7.29D-01  9.53D-01
 E= -1730.73381903715     Delta-E=       -0.000000000437 Rises=F Damp=F
 DIIS: error= 3.21D-07 at cycle   8 NSaved=   8.
 NSaved= 8 IEnMin= 8 EnMin= -1730.73381903715     IErMin= 8 ErrMin= 3.21D-07
 ErrMax= 3.21D-07  0.00D+00 EMaxC= 1.00D-01 BMatC= 1.79D-10 BMatP= 6.07D-10
 IDIUse=1 WtCom= 1.00D+00 WtEn= 0.00D+00
 Coeff-Com:  0.124D-03-0.165D-02-0.242D-02-0.251D-02 0.727D-02 0.536D-01
 Coeff-Com:  0.360D+00 0.586D+00
 Coeff:      0.124D-03-0.165D-02-0.242D-02-0.251D-02 0.727D-02 0.536D-01
 Coeff:      0.360D+00 0.586D+00
 Gap=     0.237 Goal=   None    Shift=    0.000
 RMSDP=8.50D-08 MaxDP=2.06D-05 DE=-4.37D-10 OVMax= 2.83D-06

 Cycle   9  Pass 1  IDiag  1:
 RMSU=  6.96D-08    CP:  9.95D-01  1.04D+00  7.37D-01  5.56D-01  8.59D-01
                    CP:  7.25D-01  1.04D+00  8.90D-01
 E= -1730.73381903730     Delta-E=       -0.000000000155 Rises=F Damp=F
 DIIS: error= 1.01D-07 at cycle   9 NSaved=   9.
 NSaved= 9 IEnMin= 9 EnMin= -1730.73381903730     IErMin= 9 ErrMin= 1.01D-07
 ErrMax= 1.01D-07  0.00D+00 EMaxC= 1.00D-01 BMatC= 2.62D-11 BMatP= 1.79D-10
 IDIUse=1 WtCom= 1.00D+00 WtEn= 0.00D+00
 Coeff-Com:  0.302D-05 0.386D-03-0.175D-02-0.344D-02-0.158D-01-0.210D-01
 Coeff-Com:  0.105D+00 0.340D+00 0.597D+00
 Coeff:      0.302D-05 0.386D-03-0.175D-02-0.344D-02-0.158D-01-0.210D-01
 Coeff:      0.105D+00 0.340D+00 0.597D+00
 Gap=     0.237 Goal=   None    Shift=    0.000
 RMSDP=3.29D-08 MaxDP=8.90D-06 DE=-1.55D-10 OVMax= 1.20D-06

 Cycle  10  Pass 1  IDiag  1:
 RMSU=  1.64D-08    CP:  9.95D-01  1.04D+00  7.37D-01  5.55D-01  8.59D-01
                    CP:  7.37D-01  1.06D+00  8.94D-01  7.36D-01
 E= -1730.73381903732     Delta-E=       -0.000000000015 Rises=F Damp=F
 DIIS: error= 2.53D-08 at cycle  10 NSaved=  10.
 NSaved=10 IEnMin=10 EnMin= -1730.73381903732     IErMin=10 ErrMin= 2.53D-08
 ErrMax= 2.53D-08  0.00D+00 EMaxC= 1.00D-01 BMatC= 1.55D-12 BMatP= 2.62D-11
 IDIUse=1 WtCom= 1.00D+00 WtEn= 0.00D+00
 Coeff-Com: -0.991D-05 0.338D-03-0.588D-03-0.136D-02-0.792D-02-0.146D-01
 Coeff-Com:  0.151D-01 0.103D+00 0.274D+00 0.632D+00
 Coeff:     -0.991D-05 0.338D-03-0.588D-03-0.136D-02-0.792D-02-0.146D-01
 Coeff:      0.151D-01 0.103D+00 0.274D+00 0.632D+00
 Gap=     0.237 Goal=   None    Shift=    0.000
 RMSDP=7.31D-09 MaxDP=1.51D-06 DE=-1.46D-11 OVMax= 3.11D-07

 Cycle  11  Pass 1  IDiag  1:
 RMSU=  5.93D-09    CP:  9.95D-01  1.04D+00  7.36D-01  5.55D-01  8.59D-01
                    CP:  7.37D-01  1.07D+00  8.94D-01  7.04D-01  8.81D-01
 E= -1730.73381903738     Delta-E=       -0.000000000065 Rises=F Damp=F
 DIIS: error= 5.82D-09 at cycle  11 NSaved=  11.
 NSaved=11 IEnMin=11 EnMin= -1730.73381903738     IErMin=11 ErrMin= 5.82D-09
 ErrMax= 5.82D-09  0.00D+00 EMaxC= 1.00D-01 BMatC= 1.17D-13 BMatP= 1.55D-12
 IDIUse=1 WtCom= 1.00D+00 WtEn= 0.00D+00
 Coeff-Com: -0.433D-05 0.115D-03-0.135D-03-0.345D-03-0.221D-02-0.464D-02
 Coeff-Com: -0.954D-03 0.186D-01 0.724D-01 0.270D+00 0.648D+00
 Coeff:     -0.433D-05 0.115D-03-0.135D-03-0.345D-03-0.221D-02-0.464D-02
 Coeff:     -0.954D-03 0.186D-01 0.724D-01 0.270D+00 0.648D+00
 Gap=     0.237 Goal=   None    Shift=    0.000
 RMSDP=2.64D-09 MaxDP=5.09D-07 DE=-6.46D-11 OVMax= 8.08D-08

 SCF Done:  E(RPBE1PBE) =  -1730.73381904     A.U. after   11 cycles
            NFock= 11  Conv=0.26D-08     -V/T= 2.0086
 KE= 1.715894293574D+03 PE=-1.102670865418D+04 EE= 4.084287466180D+03
 Leave Link  502 at Mon Jan 31 11:32:53 2022, MaxMem=  8589934592 cpu:            1795.3 elap:              75.0
 (Enter /share/apps/g16.b01_avx2/g16/l701.exe)
 ... and contract with generalized density number  0.
 Compute integral first derivatives.
 R6Disp: Adding Grimme-D3 dispersion energy 1st derivatives to the gradient.
 Leave Link  701 at Mon Jan 31 11:32:54 2022, MaxMem=  8589934592 cpu:               5.9 elap:               0.3
 (Enter /share/apps/g16.b01_avx2/g16/l702.exe)
 L702 exits ... SP integral derivatives will be done elsewhere.
 Leave Link  702 at Mon Jan 31 11:32:54 2022, MaxMem=  8589934592 cpu:               0.3 elap:               0.0
 (Enter /share/apps/g16.b01_avx2/g16/l703.exe)
 Integral derivatives from FoFJK, PRISM(SPDF).
 Compute integral first derivatives, UseDBF=F ICtDFT=           0.
 Calling FoFJK, ICntrl=      2127 FMM=T ISym2X=0 I1Cent= 0 IOpClX= 0 NMat=1 NMatS=1 NMatT=0.
 FoFJK:  IHMeth= 1 ICntrl=    2127 DoSepK=F KAlg= 0 I1Cent=           0 FoldK=F
 IRaf=         0 NMat=       1 IRICut=       1 DoRegI=T DoRafI=F ISym2E= 0 IDoP0=0 IntGTp=1.
 FoFCou: FMM=T IPFlag=           0 FMFlag=      100000 FMFlg1=        2001
         NFxFlg=           0 DoJE=F BraDBF=F KetDBF=F FulRan=T
         wScrn=  0.000000 ICntrl=      2127 IOpCl=  0 I1Cent=           0 NGrid=           0
         NMat0=    1 NMatS0=      1 NMatT0=    0 NMatD0=    1 NMtDS0=    0 NMtDT0=    0
 Symmetry not used in FoFCou.
 FMM levels:  10  Number of levels for PrismC:   9
