 Entering Gaussian System, Link 0=g16
 Input=input.com
 Output=input.log
 Initial command:
 /share/apps/g16.b01_avx2/g16/l1.exe "/scratch/Gau-1325753.inp" -scrdir="/scratch/"
 Entering Link 1 = /share/apps/g16.b01_avx2/g16/l1.exe PID=   1325755.
  
 Copyright (c) 1988-2017, Gaussian, Inc.  All Rights Reserved.
  
 This is part of the Gaussian(R) 16 program.  It is based on
 the Gaussian(R) 09 system (copyright 2009, Gaussian, Inc.),
 the Gaussian(R) 03 system (copyright 2003, Gaussian, Inc.),
 the Gaussian(R) 98 system (copyright 1998, Gaussian, Inc.),
 the Gaussian(R) 94 system (copyright 1995, Gaussian, Inc.),
 the Gaussian 92(TM) system (copyright 1992, Gaussian, Inc.),
 the Gaussian 90(TM) system (copyright 1990, Gaussian, Inc.),
 the Gaussian 88(TM) system (copyright 1988, Gaussian, Inc.),
 the Gaussian 86(TM) system (copyright 1986, Carnegie Mellon
 University), and the Gaussian 82(TM) system (copyright 1983,
 Carnegie Mellon University). Gaussian is a federally registered
 trademark of Gaussian, Inc.
  
 This software contains proprietary and confidential information,
 including trade secrets, belonging to Gaussian, Inc.
  
 This software is provided under written license and may be
 used, copied, transmitted, or stored only in accord with that
 written license.
  
 The following legend is applicable only to US Government
 contracts under FAR:
  
                    RESTRICTED RIGHTS LEGEND
  
 Use, reproduction and disclosure by the US Government is
 subject to restrictions as set forth in subparagraphs (a)
 and (c) of the Commercial Computer Software - Restricted
 Rights clause in FAR 52.227-19.
  
 Gaussian, Inc.
 340 Quinnipiac St., Bldg. 40, Wallingford CT 06492
  
  
 ---------------------------------------------------------------
 Warning -- This program may not be used in any manner that
 competes with the business of Gaussian, Inc. or will provide
 assistance to any competitor of Gaussian, Inc.  The licensee
 of this program is prohibited from giving any competitor of
 Gaussian, Inc. access to this program.  By using this program,
 the user acknowledges that Gaussian, Inc. is engaged in the
 business of creating and licensing software in the field of
 computational chemistry and represents and warrants to the
 licensee that it is not a competitor of Gaussian, Inc. and that
 it will not use this program in any manner prohibited above.
 ---------------------------------------------------------------
  

 Cite this work as:
 Gaussian 16, Revision B.01,
 M. J. Frisch, G. W. Trucks, H. B. Schlegel, G. E. Scuseria, 
 M. A. Robb, J. R. Cheeseman, G. Scalmani, V. Barone, 
 G. A. Petersson, H. Nakatsuji, X. Li, M. Caricato, A. V. Marenich, 
 J. Bloino, B. G. Janesko, R. Gomperts, B. Mennucci, H. P. Hratchian, 
 J. V. Ortiz, A. F. Izmaylov, J. L. Sonnenberg, D. Williams-Young, 
 F. Ding, F. Lipparini, F. Egidi, J. Goings, B. Peng, A. Petrone, 
 T. Henderson, D. Ranasinghe, V. G. Zakrzewski, J. Gao, N. Rega, 
 G. Zheng, W. Liang, M. Hada, M. Ehara, K. Toyota, R. Fukuda, 
 J. Hasegawa, M. Ishida, T. Nakajima, Y. Honda, O. Kitao, H. Nakai, 
 T. Vreven, K. Throssell, J. A. Montgomery, Jr., J. E. Peralta, 
 F. Ogliaro, M. J. Bearpark, J. J. Heyd, E. N. Brothers, K. N. Kudin, 
 V. N. Staroverov, T. A. Keith, R. Kobayashi, J. Normand, 
 K. Raghavachari, A. P. Rendell, J. C. Burant, S. S. Iyengar, 
 J. Tomasi, M. Cossi, J. M. Millam, M. Klene, C. Adamo, R. Cammi, 
 J. W. Ochterski, R. L. Martin, K. Morokuma, O. Farkas, 
 J. B. Foresman, and D. J. Fox, Gaussian, Inc., Wallingford CT, 2016.
 
 ******************************************
 Gaussian 16:  ES64L-G16RevB.01 20-Dec-2017
                 7-Feb-2022 
 ******************************************
 %nproc=24
 Will use up to   24 processors via shared memory.
 %mem=64GB
 ----------------------------------------------------------------------
 #P PBE1PBE/6-31+G(d,p) opt=(maxstep=10) int=(grid=99590) freq Empirica
 lDispersion=GD3
 ----------------------------------------------------------------------
 1/8=10,18=20,19=15,26=5,38=1/1,3;
 2/9=110,12=2,17=6,18=5,40=1/2;
 3/5=1,6=6,7=111,11=2,25=1,30=1,71=1,74=-13,75=99590,124=31/1,2,3;
 4//1;
 5/5=2,38=5/2;
 6/7=2,8=2,9=2,10=2,28=1/1;
 7//1,2,3,16;
 1/8=10,18=20,19=15,26=5/3(2);
 2/9=110/2;
 99//99;
 2/9=110/2;
 3/5=1,6=6,7=111,11=2,25=1,30=1,71=1,74=-13,75=99590,124=31/1,2,3;
 4/5=5,16=3,69=1/1;
 5/5=2,38=5/2;
 7//1,2,3,16;
 1/8=10,18=20,19=15,26=5/3(-5);
 2/9=110/2;
 6/7=2,8=2,9=2,10=2,19=2,28=1/1;
 99/9=1/99;
 Leave Link    1 at Mon Feb  7 16:11:30 2022, MaxMem=  8589934592 cpu:               0.8 elap:               0.0
 (Enter /share/apps/g16.b01_avx2/g16/l101.exe)
 -------
 solv sp
 -------
 Symbolic Z-matrix:
 Charge =  0 Multiplicity = 1
 C                     5.46455  -0.63852   0.00576 
 N                     4.25812   0.10936  -0.25863 
 H                     4.40182   1.0095   -0.70435 
 C                     3.05591  -0.28271   0.19324 
 O                     2.87776  -1.33548   0.80541 
 C                     1.90282   0.68698  -0.07227 
 N                     0.68664  -0.02268   0.24616 
 H                     0.81956  -0.89367   0.74961 
 C                     6.63132   0.32706  -0.20753 
 O                     6.46668   1.42228  -0.74483 
 N                     7.83166  -0.11302   0.20422 
 H                     7.96678  -1.04068   0.59231 
 C                     9.04389   0.63685  -0.02207 
 C                     10.20213  -0.35864   0.08499 
 O                     10.03729  -1.46943   0.58021 
 N                     11.39215   0.0922   -0.36488 
 H                     11.4318   1.01322  -0.77264 
 H                     5.44955  -0.96271   1.05486 
 H                     9.00448   1.05243  -1.03801 
 C                    -1.67725  -0.57687   0.10483 
 N                    -2.88459   0.12739  -0.25561 
 H                    -2.74224   0.96133  -0.81576 
 C                    -4.08692  -0.20426   0.24358 
 O                    -4.26266  -1.16903   0.98721 
 C                    -5.23998   0.72179  -0.14609 
 N                    -6.45872   0.05757   0.24774 
 H                    -6.33513  -0.74017   0.86183 
 C                    -7.65289   0.37306  -0.28435 
 O                    -7.80396   1.29278  -1.08833 
 C                    -0.51119   0.35554  -0.22851 
 O                    -0.6759    1.36858  -0.90814 
 H                    -1.69454  -0.76468   1.18661 
 H                    -5.25208   0.84974  -1.23661 
 C                     12.6098  -0.6851   -0.28777 
 H                     12.36622  -1.64124   0.17683 
 H                     13.01988  -0.8699   -1.28535 
 H                     13.3626  -0.17479   0.32107 
 C                    -8.81949  -0.51388   0.14839 
 H                    -8.8353   -0.58834   1.24411 
 H                    -9.90475   0.9048   -0.92992 
 C                    -11.2346  -0.15889   0.26513 
 C                    -12.40968   0.64027  -0.248 
 H                    -12.13959   1.38635  -0.99977 
 H                    -13.14057  -0.05136  -0.67503 
 H                    -12.88719   1.13851   0.59963 
 O                    -11.36894  -1.02992   1.1197 
 N                    -10.03112   0.13882  -0.2798 
 C                    -8.69027  -1.92491  -0.43533 
 H                    -8.65222  -1.88131  -1.52814 
 H                    -7.78786  -2.42731  -0.0735 
 H                    -9.55962  -2.5113   -0.12944 
 C                    -5.09917   2.09843   0.51047 
 H                    -5.06436   1.99793   1.59947 
 H                    -4.1905    2.60893   0.17728 
 H                    -5.96065   2.71105   0.23529 
 C                    -1.55382  -1.91597  -0.62759 
 H                    -1.51164  -1.75515  -1.70903 
 H                    -0.65453  -2.45779  -0.31969 
 H                    -2.42493  -2.53099  -0.3909 
 C                     2.0479    1.97219   0.74743 
 H                     2.0939    1.73882   1.81539 
 H                     2.95257   2.5218    0.47077 
 H                     1.18384   2.61308   0.55815 
 C                     5.58289  -1.87319  -0.89209 
 H                     5.62509  -1.57582  -1.94418 
 H                     6.48009  -2.45336  -0.65684 
 H                     4.70992  -2.51054  -0.73501 
 C                     9.19727   1.78637   0.97828 
 H                     8.3311    2.44677   0.89575 
 H                     9.25585   1.39672   1.99877 
 H                     10.09833   2.37427   0.77813 
 H                     1.88368   0.94663  -1.13899 
 
 ITRead=  0  0  0  0  0  0  0  0  0  0  0  0  0  0  0  0  0  0  0  0
 ITRead=  0  0  0  0  0  0  0  0  0  0  0  0  0  0  0  0  0  0  0  0
 ITRead=  0  0  0  0  0  0  0  0  0  0  0  0  0  0  0  0  0  0  0  0
 ITRead=  0  0  0  0  0  0  0  0  0  0  0  0
 MicOpt= -1 -1 -1 -1 -1 -1 -1 -1 -1 -1 -1 -1 -1 -1 -1 -1 -1 -1 -1 -1
 MicOpt= -1 -1 -1 -1 -1 -1 -1 -1 -1 -1 -1 -1 -1 -1 -1 -1 -1 -1 -1 -1
 MicOpt= -1 -1 -1 -1 -1 -1 -1 -1 -1 -1 -1 -1 -1 -1 -1 -1 -1 -1 -1 -1
 MicOpt= -1 -1 -1 -1 -1 -1 -1 -1 -1 -1 -1 -1
 NAtoms=     72 NQM=       72 NQMF=       0 NMMI=      0 NMMIF=      0
                NMic=       0 NMicF=      0.
                    Isotopes and Nuclear Properties:
 (Nuclear quadrupole moments (NQMom) in fm**2, nuclear magnetic moments (NMagM)
  in nuclear magnetons)

  Atom         1           2           3           4           5           6           7           8           9          10
 IAtWgt=          12          14           1          12          16          12          14           1          12          16
 AtmWgt=  12.0000000  14.0030740   1.0078250  12.0000000  15.9949146  12.0000000  14.0030740   1.0078250  12.0000000  15.9949146
 NucSpn=           0           2           1           0           0           0           2           1           0           0
 AtZEff=  -0.0000000  -0.0000000  -0.0000000  -0.0000000  -0.0000000  -0.0000000  -0.0000000  -0.0000000  -0.0000000  -0.0000000
 NQMom=    0.0000000   2.0440000   0.0000000   0.0000000   0.0000000   0.0000000   2.0440000   0.0000000   0.0000000   0.0000000
 NMagM=    0.0000000   0.4037610   2.7928460   0.0000000   0.0000000   0.0000000   0.4037610   2.7928460   0.0000000   0.0000000
 AtZNuc=   6.0000000   7.0000000   1.0000000   6.0000000   8.0000000   6.0000000   7.0000000   1.0000000   6.0000000   8.0000000

  Atom        11          12          13          14          15          16          17          18          19          20
 IAtWgt=          14           1          12          12          16          14           1           1           1          12
 AtmWgt=  14.0030740   1.0078250  12.0000000  12.0000000  15.9949146  14.0030740   1.0078250   1.0078250   1.0078250  12.0000000
 NucSpn=           2           1           0           0           0           2           1           1           1           0
 AtZEff=  -0.0000000  -0.0000000  -0.0000000  -0.0000000  -0.0000000  -0.0000000  -0.0000000  -0.0000000  -0.0000000  -0.0000000
 NQMom=    2.0440000   0.0000000   0.0000000   0.0000000   0.0000000   2.0440000   0.0000000   0.0000000   0.0000000   0.0000000
 NMagM=    0.4037610   2.7928460   0.0000000   0.0000000   0.0000000   0.4037610   2.7928460   2.7928460   2.7928460   0.0000000
 AtZNuc=   7.0000000   1.0000000   6.0000000   6.0000000   8.0000000   7.0000000   1.0000000   1.0000000   1.0000000   6.0000000

  Atom        21          22          23          24          25          26          27          28          29          30
 IAtWgt=          14           1          12          16          12          14           1          12          16          12
 AtmWgt=  14.0030740   1.0078250  12.0000000  15.9949146  12.0000000  14.0030740   1.0078250  12.0000000  15.9949146  12.0000000
 NucSpn=           2           1           0           0           0           2           1           0           0           0
 AtZEff=  -0.0000000  -0.0000000  -0.0000000  -0.0000000  -0.0000000  -0.0000000  -0.0000000  -0.0000000  -0.0000000  -0.0000000
 NQMom=    2.0440000   0.0000000   0.0000000   0.0000000   0.0000000   2.0440000   0.0000000   0.0000000   0.0000000   0.0000000
 NMagM=    0.4037610   2.7928460   0.0000000   0.0000000   0.0000000   0.4037610   2.7928460   0.0000000   0.0000000   0.0000000
 AtZNuc=   7.0000000   1.0000000   6.0000000   8.0000000   6.0000000   7.0000000   1.0000000   6.0000000   8.0000000   6.0000000

  Atom        31          32          33          34          35          36          37          38          39          40
 IAtWgt=          16           1           1          12           1           1           1          12           1           1
 AtmWgt=  15.9949146   1.0078250   1.0078250  12.0000000   1.0078250   1.0078250   1.0078250  12.0000000   1.0078250   1.0078250
 NucSpn=           0           1           1           0           1           1           1           0           1           1
 AtZEff=  -0.0000000  -0.0000000  -0.0000000  -0.0000000  -0.0000000  -0.0000000  -0.0000000  -0.0000000  -0.0000000  -0.0000000
 NQMom=    0.0000000   0.0000000   0.0000000   0.0000000   0.0000000   0.0000000   0.0000000   0.0000000   0.0000000   0.0000000
 NMagM=    0.0000000   2.7928460   2.7928460   0.0000000   2.7928460   2.7928460   2.7928460   0.0000000   2.7928460   2.7928460
 AtZNuc=   8.0000000   1.0000000   1.0000000   6.0000000   1.0000000   1.0000000   1.0000000   6.0000000   1.0000000   1.0000000

  Atom        41          42          43          44          45          46          47          48          49          50
 IAtWgt=          12          12           1           1           1          16          14          12           1           1
 AtmWgt=  12.0000000  12.0000000   1.0078250   1.0078250   1.0078250  15.9949146  14.0030740  12.0000000   1.0078250   1.0078250
 NucSpn=           0           0           1           1           1           0           2           0           1           1
 AtZEff=  -0.0000000  -0.0000000  -0.0000000  -0.0000000  -0.0000000  -0.0000000  -0.0000000  -0.0000000  -0.0000000  -0.0000000
 NQMom=    0.0000000   0.0000000   0.0000000   0.0000000   0.0000000   0.0000000   2.0440000   0.0000000   0.0000000   0.0000000
 NMagM=    0.0000000   0.0000000   2.7928460   2.7928460   2.7928460   0.0000000   0.4037610   0.0000000   2.7928460   2.7928460
 AtZNuc=   6.0000000   6.0000000   1.0000000   1.0000000   1.0000000   8.0000000   7.0000000   6.0000000   1.0000000   1.0000000

  Atom        51          52          53          54          55          56          57          58          59          60
 IAtWgt=           1          12           1           1           1          12           1           1           1          12
 AtmWgt=   1.0078250  12.0000000   1.0078250   1.0078250   1.0078250  12.0000000   1.0078250   1.0078250   1.0078250  12.0000000
 NucSpn=           1           0           1           1           1           0           1           1           1           0
 AtZEff=  -0.0000000  -0.0000000  -0.0000000  -0.0000000  -0.0000000  -0.0000000  -0.0000000  -0.0000000  -0.0000000  -0.0000000
 NQMom=    0.0000000   0.0000000   0.0000000   0.0000000   0.0000000   0.0000000   0.0000000   0.0000000   0.0000000   0.0000000
 NMagM=    2.7928460   0.0000000   2.7928460   2.7928460   2.7928460   0.0000000   2.7928460   2.7928460   2.7928460   0.0000000
 AtZNuc=   1.0000000   6.0000000   1.0000000   1.0000000   1.0000000   6.0000000   1.0000000   1.0000000   1.0000000   6.0000000

  Atom        61          62          63          64          65          66          67          68          69          70
 IAtWgt=           1           1           1          12           1           1           1          12           1           1
 AtmWgt=   1.0078250   1.0078250   1.0078250  12.0000000   1.0078250   1.0078250   1.0078250  12.0000000   1.0078250   1.0078250
 NucSpn=           1           1           1           0           1           1           1           0           1           1
 AtZEff=  -0.0000000  -0.0000000  -0.0000000  -0.0000000  -0.0000000  -0.0000000  -0.0000000  -0.0000000  -0.0000000  -0.0000000
 NQMom=    0.0000000   0.0000000   0.0000000   0.0000000   0.0000000   0.0000000   0.0000000   0.0000000   0.0000000   0.0000000
 NMagM=    2.7928460   2.7928460   2.7928460   0.0000000   2.7928460   2.7928460   2.7928460   0.0000000   2.7928460   2.7928460
 AtZNuc=   1.0000000   1.0000000   1.0000000   6.0000000   1.0000000   1.0000000   1.0000000   6.0000000   1.0000000   1.0000000

  Atom        71          72
 IAtWgt=           1           1
 AtmWgt=   1.0078250   1.0078250
 NucSpn=           1           1
 AtZEff=  -0.0000000  -0.0000000
 NQMom=    0.0000000   0.0000000
 NMagM=    2.7928460   2.7928460
 AtZNuc=   1.0000000   1.0000000
 Leave Link  101 at Mon Feb  7 16:11:31 2022, MaxMem=  8589934592 cpu:               7.7 elap:               0.3
 (Enter /share/apps/g16.b01_avx2/g16/l103.exe)

 GradGradGradGradGradGradGradGradGradGradGradGradGradGradGradGradGradGrad
 Berny optimization.
 Initialization pass.
                           ----------------------------
                           !    Initial Parameters    !
                           ! (Angstroms and Degrees)  !
 --------------------------                            --------------------------
 ! Name  Definition              Value          Derivative Info.                !
 --------------------------------------------------------------------------------
 ! R1    R(1,2)                  1.4438         estimate D2E/DX2                !
 ! R2    R(1,9)                  1.5294         estimate D2E/DX2                !
 ! R3    R(1,18)                 1.0982         estimate D2E/DX2                !
 ! R4    R(1,64)                 1.5312         estimate D2E/DX2                !
 ! R5    R(2,3)                  1.0147         estimate D2E/DX2                !
 ! R6    R(2,4)                  1.3428         estimate D2E/DX2                !
 ! R7    R(4,5)                  1.2308         estimate D2E/DX2                !
 ! R8    R(4,6)                  1.5298         estimate D2E/DX2                !
 ! R9    R(6,7)                  1.4436         estimate D2E/DX2                !
 ! R10   R(6,60)                 1.5312         estimate D2E/DX2                !
 ! R11   R(6,72)                 1.098          estimate D2E/DX2                !
 ! R12   R(7,8)                  1.0148         estimate D2E/DX2                !
 ! R13   R(7,30)                 1.3428         estimate D2E/DX2                !
 ! R14   R(9,10)                 1.231          estimate D2E/DX2                !
 ! R15   R(9,11)                 1.3431         estimate D2E/DX2                !
 ! R16   R(11,12)                1.0146         estimate D2E/DX2                !
 ! R17   R(11,13)                1.4433         estimate D2E/DX2                !
 ! R18   R(13,14)                1.531          estimate D2E/DX2                !
 ! R19   R(13,19)                1.0984         estimate D2E/DX2                !
 ! R20   R(13,68)                1.5315         estimate D2E/DX2                !
 ! R21   R(14,15)                1.2273         estimate D2E/DX2                !
 ! R22   R(14,16)                1.3497         estimate D2E/DX2                !
 ! R23   R(16,17)                1.008          estimate D2E/DX2                !
 ! R24   R(16,34)                1.4467         estimate D2E/DX2                !
 ! R25   R(20,21)                1.4435         estimate D2E/DX2                !
 ! R26   R(20,30)                1.5298         estimate D2E/DX2                !
 ! R27   R(20,32)                1.0981         estimate D2E/DX2                !
 ! R28   R(20,56)                1.5313         estimate D2E/DX2                !
 ! R29   R(21,22)                1.0146         estimate D2E/DX2                !
 ! R30   R(21,23)                1.3434         estimate D2E/DX2                !
 ! R31   R(23,24)                1.2307         estimate D2E/DX2                !
 ! R32   R(23,25)                1.5294         estimate D2E/DX2                !
 ! R33   R(25,26)                1.4428         estimate D2E/DX2                !
 ! R34   R(25,33)                1.0981         estimate D2E/DX2                !
 ! R35   R(25,52)                1.5317         estimate D2E/DX2                !
 ! R36   R(26,27)                1.0143         estimate D2E/DX2                !
 ! R37   R(26,28)                1.3449         estimate D2E/DX2                !
 ! R38   R(28,29)                1.2309         estimate D2E/DX2                !
 ! R39   R(28,38)                1.528          estimate D2E/DX2                !
 ! R40   R(30,31)                1.231          estimate D2E/DX2                !
 ! R41   R(34,35)                1.0906         estimate D2E/DX2                !
 ! R42   R(34,36)                1.0943         estimate D2E/DX2                !
 ! R43   R(34,37)                1.0944         estimate D2E/DX2                !
 ! R44   R(38,39)                1.0984         estimate D2E/DX2                !
 ! R45   R(38,47)                1.4413         estimate D2E/DX2                !
 ! R46   R(38,48)                1.5325         estimate D2E/DX2                !
 ! R47   R(40,47)                1.0126         estimate D2E/DX2                !
 ! R48   R(41,42)                1.5109         estimate D2E/DX2                !
 ! R49   R(41,46)                1.2276         estimate D2E/DX2                !
 ! R50   R(41,47)                1.3542         estimate D2E/DX2                !
 ! R51   R(42,43)                1.093          estimate D2E/DX2                !
 ! R52   R(42,44)                1.0931         estimate D2E/DX2                !
 ! R53   R(42,45)                1.093          estimate D2E/DX2                !
 ! R54   R(48,49)                1.0943         estimate D2E/DX2                !
 ! R55   R(48,50)                1.0944         estimate D2E/DX2                !
 ! R56   R(48,51)                1.0923         estimate D2E/DX2                !
 ! R57   R(52,53)                1.0942         estimate D2E/DX2                !
 ! R58   R(52,54)                1.0942         estimate D2E/DX2                !
 ! R59   R(52,55)                1.0923         estimate D2E/DX2                !
 ! R60   R(56,57)                1.0942         estimate D2E/DX2                !
 ! R61   R(56,58)                1.0941         estimate D2E/DX2                !
 ! R62   R(56,59)                1.0923         estimate D2E/DX2                !
 ! R63   R(60,61)                1.0941         estimate D2E/DX2                !
 ! R64   R(60,62)                1.0941         estimate D2E/DX2                !
 ! R65   R(60,63)                1.0923         estimate D2E/DX2                !
 ! R66   R(64,65)                1.0941         estimate D2E/DX2                !
 ! R67   R(64,66)                1.094          estimate D2E/DX2                !
 ! R68   R(64,67)                1.0922         estimate D2E/DX2                !
 ! R69   R(68,69)                1.0923         estimate D2E/DX2                !
 ! R70   R(68,70)                1.0939         estimate D2E/DX2                !
 ! R71   R(68,71)                1.0943         estimate D2E/DX2                !
 ! A1    A(2,1,9)              106.552          estimate D2E/DX2                !
 ! A2    A(2,1,18)             108.4474         estimate D2E/DX2                !
 ! A3    A(2,1,64)             112.0163         estimate D2E/DX2                !
 ! A4    A(9,1,18)             109.2703         estimate D2E/DX2                !
 ! A5    A(9,1,64)             111.6133         estimate D2E/DX2                !
 ! A6    A(18,1,64)            108.8557         estimate D2E/DX2                !
 ! A7    A(1,2,3)              114.9365         estimate D2E/DX2                !
 ! A8    A(1,2,4)              122.3582         estimate D2E/DX2                !
 ! A9    A(3,2,4)              122.2501         estimate D2E/DX2                !
 ! A10   A(2,4,5)              123.141          estimate D2E/DX2                !
 ! A11   A(2,4,6)              115.552          estimate D2E/DX2                !
 ! A12   A(5,4,6)              121.2921         estimate D2E/DX2                !
 ! A13   A(4,6,7)              106.5649         estimate D2E/DX2                !
 ! A14   A(4,6,60)             111.5736         estimate D2E/DX2                !
 ! A15   A(4,6,72)             109.3673         estimate D2E/DX2                !
 ! A16   A(7,6,60)             111.9831         estimate D2E/DX2                !
 ! A17   A(7,6,72)             108.4113         estimate D2E/DX2                !
 ! A18   A(60,6,72)            108.8583         estimate D2E/DX2                !
 ! A19   A(6,7,8)              114.8983         estimate D2E/DX2                !
 ! A20   A(6,7,30)             122.3474         estimate D2E/DX2                !
 ! A21   A(8,7,30)             122.2742         estimate D2E/DX2                !
 ! A22   A(1,9,10)             121.3682         estimate D2E/DX2                !
 ! A23   A(1,9,11)             115.6051         estimate D2E/DX2                !
 ! A24   A(10,9,11)            123.0144         estimate D2E/DX2                !
 ! A25   A(9,11,12)            122.4013         estimate D2E/DX2                !
 ! A26   A(9,11,13)            122.1625         estimate D2E/DX2                !
 ! A27   A(12,11,13)           115.0342         estimate D2E/DX2                !
 ! A28   A(11,13,14)           106.6561         estimate D2E/DX2                !
 ! A29   A(11,13,19)           108.1481         estimate D2E/DX2                !
 ! A30   A(11,13,68)           111.8189         estimate D2E/DX2                !
 ! A31   A(14,13,19)           109.7453         estimate D2E/DX2                !
 ! A32   A(14,13,68)           111.5056         estimate D2E/DX2                !
 ! A33   A(19,13,68)           108.8903         estimate D2E/DX2                !
 ! A34   A(13,14,15)           121.0038         estimate D2E/DX2                !
 ! A35   A(13,14,16)           115.2466         estimate D2E/DX2                !
 ! A36   A(15,14,16)           123.7255         estimate D2E/DX2                !
 ! A37   A(14,16,17)           118.3392         estimate D2E/DX2                !
 ! A38   A(14,16,34)           123.0158         estimate D2E/DX2                !
 ! A39   A(17,16,34)           118.645          estimate D2E/DX2                !
 ! A40   A(21,20,30)           106.6049         estimate D2E/DX2                !
 ! A41   A(21,20,32)           108.4379         estimate D2E/DX2                !
 ! A42   A(21,20,56)           112.0022         estimate D2E/DX2                !
 ! A43   A(30,20,32)           109.3245         estimate D2E/DX2                !
 ! A44   A(30,20,56)           111.5521         estimate D2E/DX2                !
 ! A45   A(32,20,56)           108.8377         estimate D2E/DX2                !
 ! A46   A(20,21,22)           114.9302         estimate D2E/DX2                !
 ! A47   A(20,21,23)           122.3672         estimate D2E/DX2                !
 ! A48   A(22,21,23)           122.2496         estimate D2E/DX2                !
 ! A49   A(21,23,24)           123.0823         estimate D2E/DX2                !
 ! A50   A(21,23,25)           115.5061         estimate D2E/DX2                !
 ! A51   A(24,23,25)           121.3965         estimate D2E/DX2                !
 ! A52   A(23,25,26)           106.772          estimate D2E/DX2                !
 ! A53   A(23,25,33)           109.3843         estimate D2E/DX2                !
 ! A54   A(23,25,52)           111.4498         estimate D2E/DX2                !
 ! A55   A(26,25,33)           108.3866         estimate D2E/DX2                !
 ! A56   A(26,25,52)           111.9885         estimate D2E/DX2                !
 ! A57   A(33,25,52)           108.7839         estimate D2E/DX2                !
 ! A58   A(25,26,27)           115.1141         estimate D2E/DX2                !
 ! A59   A(25,26,28)           122.2804         estimate D2E/DX2                !
 ! A60   A(27,26,28)           122.1566         estimate D2E/DX2                !
 ! A61   A(26,28,29)           122.8665         estimate D2E/DX2                !
 ! A62   A(26,28,38)           115.4487         estimate D2E/DX2                !
 ! A63   A(29,28,38)           121.6671         estimate D2E/DX2                !
 ! A64   A(7,30,20)            115.5465         estimate D2E/DX2                !
 ! A65   A(7,30,31)            123.1149         estimate D2E/DX2                !
 ! A66   A(20,30,31)           121.3267         estimate D2E/DX2                !
 ! A67   A(16,34,35)           107.8048         estimate D2E/DX2                !
 ! A68   A(16,34,36)           110.9507         estimate D2E/DX2                !
 ! A69   A(16,34,37)           110.9819         estimate D2E/DX2                !
 ! A70   A(35,34,36)           108.9048         estimate D2E/DX2                !
 ! A71   A(35,34,37)           108.9919         estimate D2E/DX2                !
 ! A72   A(36,34,37)           109.1547         estimate D2E/DX2                !
 ! A73   A(28,38,39)           109.4426         estimate D2E/DX2                !
 ! A74   A(28,38,47)           107.1463         estimate D2E/DX2                !
 ! A75   A(28,38,48)           111.2357         estimate D2E/DX2                !
 ! A76   A(39,38,47)           108.3586         estimate D2E/DX2                !
 ! A77   A(39,38,48)           108.5894         estimate D2E/DX2                !
 ! A78   A(47,38,48)           112.0048         estimate D2E/DX2                !
 ! A79   A(42,41,46)           121.7765         estimate D2E/DX2                !
 ! A80   A(42,41,47)           115.9907         estimate D2E/DX2                !
 ! A81   A(46,41,47)           122.2316         estimate D2E/DX2                !
 ! A82   A(41,42,43)           113.7306         estimate D2E/DX2                !
 ! A83   A(41,42,44)           108.5438         estimate D2E/DX2                !
 ! A84   A(41,42,45)           108.5124         estimate D2E/DX2                !
 ! A85   A(43,42,44)           109.1719         estimate D2E/DX2                !
 ! A86   A(43,42,45)           109.2793         estimate D2E/DX2                !
 ! A87   A(44,42,45)           107.4127         estimate D2E/DX2                !
 ! A88   A(38,47,40)           115.3649         estimate D2E/DX2                !
 ! A89   A(38,47,41)           121.8679         estimate D2E/DX2                !
 ! A90   A(40,47,41)           122.3813         estimate D2E/DX2                !
 ! A91   A(38,48,49)           110.2805         estimate D2E/DX2                !
 ! A92   A(38,48,50)           111.4869         estimate D2E/DX2                !
 ! A93   A(38,48,51)           108.6942         estimate D2E/DX2                !
 ! A94   A(49,48,50)           108.6494         estimate D2E/DX2                !
 ! A95   A(49,48,51)           109.1901         estimate D2E/DX2                !
 ! A96   A(50,48,51)           108.4956         estimate D2E/DX2                !
 ! A97   A(25,52,53)           110.3038         estimate D2E/DX2                !
 ! A98   A(25,52,54)           111.416          estimate D2E/DX2                !
 ! A99   A(25,52,55)           108.8793         estimate D2E/DX2                !
 ! A100  A(53,52,54)           108.6325         estimate D2E/DX2                !
 ! A101  A(53,52,55)           109.107          estimate D2E/DX2                !
 ! A102  A(54,52,55)           108.4552         estimate D2E/DX2                !
 ! A103  A(20,56,57)           110.323          estimate D2E/DX2                !
 ! A104  A(20,56,58)           111.3895         estimate D2E/DX2                !
 ! A105  A(20,56,59)           108.933          estimate D2E/DX2                !
 ! A106  A(57,56,58)           108.6172         estimate D2E/DX2                !
 ! A107  A(57,56,59)           109.128          estimate D2E/DX2                !
 ! A108  A(58,56,59)           108.4027         estimate D2E/DX2                !
 ! A109  A(6,60,61)            110.3328         estimate D2E/DX2                !
 ! A110  A(6,60,62)            111.3832         estimate D2E/DX2                !
 ! A111  A(6,60,63)            108.95           estimate D2E/DX2                !
 ! A112  A(61,60,62)           108.6145         estimate D2E/DX2                !
 ! A113  A(61,60,63)           109.1201         estimate D2E/DX2                !
 ! A114  A(62,60,63)           108.3922         estimate D2E/DX2                !
 ! A115  A(1,64,65)            110.345          estimate D2E/DX2                !
 ! A116  A(1,64,66)            111.4016         estimate D2E/DX2                !
 ! A117  A(1,64,67)            108.9314         estimate D2E/DX2                !
 ! A118  A(65,64,66)           108.6184         estimate D2E/DX2                !
 ! A119  A(65,64,67)           109.1302         estimate D2E/DX2                !
 ! A120  A(66,64,67)           108.3657         estimate D2E/DX2                !
 ! A121  A(13,68,69)           108.9663         estimate D2E/DX2                !
 ! A122  A(13,68,70)           110.3246         estimate D2E/DX2                !
 ! A123  A(13,68,71)           111.4821         estimate D2E/DX2                !
 ! A124  A(69,68,70)           109.165          estimate D2E/DX2                !
 ! A125  A(69,68,71)           108.3186         estimate D2E/DX2                !
 ! A126  A(70,68,71)           108.5347         estimate D2E/DX2                !
 ! D1    D(9,1,2,3)             12.2316         estimate D2E/DX2                !
 ! D2    D(9,1,2,4)           -160.1836         estimate D2E/DX2                !
 ! D3    D(18,1,2,3)           129.7531         estimate D2E/DX2                !
 ! D4    D(18,1,2,4)           -42.6622         estimate D2E/DX2                !
 ! D5    D(64,1,2,3)          -110.0896         estimate D2E/DX2                !
 ! D6    D(64,1,2,4)            77.4951         estimate D2E/DX2                !
 ! D7    D(2,1,9,10)           -11.9144         estimate D2E/DX2                !
 ! D8    D(2,1,9,11)           169.3237         estimate D2E/DX2                !
 ! D9    D(18,1,9,10)         -128.8901         estimate D2E/DX2                !
 ! D10   D(18,1,9,11)           52.348          estimate D2E/DX2                !
 ! D11   D(64,1,9,10)          110.6606         estimate D2E/DX2                !
 ! D12   D(64,1,9,11)          -68.1013         estimate D2E/DX2                !
 ! D13   D(2,1,64,65)           61.4855         estimate D2E/DX2                !
 ! D14   D(2,1,64,66)         -177.7806         estimate D2E/DX2                !
 ! D15   D(2,1,64,67)          -58.2956         estimate D2E/DX2                !
 ! D16   D(9,1,64,65)          -57.9037         estimate D2E/DX2                !
 ! D17   D(9,1,64,66)           62.8302         estimate D2E/DX2                !
 ! D18   D(9,1,64,67)         -177.6849         estimate D2E/DX2                !
 ! D19   D(18,1,64,65)        -178.5955         estimate D2E/DX2                !
 ! D20   D(18,1,64,66)         -57.8617         estimate D2E/DX2                !
 ! D21   D(18,1,64,67)          61.6233         estimate D2E/DX2                !
 ! D22   D(1,2,4,5)             -3.7466         estimate D2E/DX2                !
 ! D23   D(1,2,4,6)            174.863          estimate D2E/DX2                !
 ! D24   D(3,2,4,5)           -175.6108         estimate D2E/DX2                !
 ! D25   D(3,2,4,6)              2.9989         estimate D2E/DX2                !
 ! D26   D(2,4,6,7)            169.0442         estimate D2E/DX2                !
 ! D27   D(2,4,6,60)           -68.4374         estimate D2E/DX2                !
 ! D28   D(2,4,6,72)            52.0543         estimate D2E/DX2                !
 ! D29   D(5,4,6,7)            -12.3182         estimate D2E/DX2                !
 ! D30   D(5,4,6,60)           110.2003         estimate D2E/DX2                !
 ! D31   D(5,4,6,72)          -129.3081         estimate D2E/DX2                !
 ! D32   D(4,6,7,8)             12.4683         estimate D2E/DX2                !
 ! D33   D(4,6,7,30)          -159.745          estimate D2E/DX2                !
 ! D34   D(60,6,7,8)          -109.7922         estimate D2E/DX2                !
 ! D35   D(60,6,7,30)           77.9945         estimate D2E/DX2                !
 ! D36   D(72,6,7,8)           130.0918         estimate D2E/DX2                !
 ! D37   D(72,6,7,30)          -42.1216         estimate D2E/DX2                !
 ! D38   D(4,6,60,61)          -57.848          estimate D2E/DX2                !
 ! D39   D(4,6,60,62)           62.8605         estimate D2E/DX2                !
 ! D40   D(4,6,60,63)         -177.621          estimate D2E/DX2                !
 ! D41   D(7,6,60,61)           61.5078         estimate D2E/DX2                !
 ! D42   D(7,6,60,62)         -177.7837         estimate D2E/DX2                !
 ! D43   D(7,6,60,63)          -58.2653         estimate D2E/DX2                !
 ! D44   D(72,6,60,61)        -178.6374         estimate D2E/DX2                !
 ! D45   D(72,6,60,62)         -57.9289         estimate D2E/DX2                !
 ! D46   D(72,6,60,63)          61.5895         estimate D2E/DX2                !
 ! D47   D(6,7,30,20)          174.8008         estimate D2E/DX2                !
 ! D48   D(6,7,30,31)           -3.9565         estimate D2E/DX2                !
 ! D49   D(8,7,30,20)            3.1583         estimate D2E/DX2                !
 ! D50   D(8,7,30,31)         -175.599          estimate D2E/DX2                !
 ! D51   D(1,9,11,12)            2.7136         estimate D2E/DX2                !
 ! D52   D(1,9,11,13)          175.0725         estimate D2E/DX2                !
 ! D53   D(10,9,11,12)        -176.0257         estimate D2E/DX2                !
 ! D54   D(10,9,11,13)          -3.6668         estimate D2E/DX2                !
 ! D55   D(9,11,13,14)        -159.1657         estimate D2E/DX2                !
 ! D56   D(9,11,13,19)         -41.1859         estimate D2E/DX2                !
 ! D57   D(9,11,13,68)          78.6968         estimate D2E/DX2                !
 ! D58   D(12,11,13,14)         13.7167         estimate D2E/DX2                !
 ! D59   D(12,11,13,19)        131.6965         estimate D2E/DX2                !
 ! D60   D(12,11,13,68)       -108.4208         estimate D2E/DX2                !
 ! D61   D(11,13,14,15)        -14.7913         estimate D2E/DX2                !
 ! D62   D(11,13,14,16)        166.931          estimate D2E/DX2                !
 ! D63   D(19,13,14,15)       -131.7157         estimate D2E/DX2                !
 ! D64   D(19,13,14,16)         50.0066         estimate D2E/DX2                !
 ! D65   D(68,13,14,15)        107.5435         estimate D2E/DX2                !
 ! D66   D(68,13,14,16)        -70.7342         estimate D2E/DX2                !
 ! D67   D(11,13,68,69)        -58.3372         estimate D2E/DX2                !
 ! D68   D(11,13,68,70)         61.496          estimate D2E/DX2                !
 ! D69   D(11,13,68,71)       -177.836          estimate D2E/DX2                !
 ! D70   D(14,13,68,69)       -177.6513         estimate D2E/DX2                !
 ! D71   D(14,13,68,70)        -57.818          estimate D2E/DX2                !
 ! D72   D(14,13,68,71)         62.8499         estimate D2E/DX2                !
 ! D73   D(19,13,68,69)         61.1089         estimate D2E/DX2                !
 ! D74   D(19,13,68,70)       -179.0578         estimate D2E/DX2                !
 ! D75   D(19,13,68,71)        -58.3899         estimate D2E/DX2                !
 ! D76   D(13,14,16,17)         -2.8652         estimate D2E/DX2                !
 ! D77   D(13,14,16,34)        177.1149         estimate D2E/DX2                !
 ! D78   D(15,14,16,17)        178.9098         estimate D2E/DX2                !
 ! D79   D(15,14,16,34)         -1.1101         estimate D2E/DX2                !
 ! D80   D(14,16,34,35)          0.1147         estimate D2E/DX2                !
 ! D81   D(14,16,34,36)        119.2812         estimate D2E/DX2                !
 ! D82   D(14,16,34,37)       -119.1762         estimate D2E/DX2                !
 ! D83   D(17,16,34,35)       -179.9052         estimate D2E/DX2                !
 ! D84   D(17,16,34,36)        -60.7387         estimate D2E/DX2                !
 ! D85   D(17,16,34,37)         60.8039         estimate D2E/DX2                !
 ! D86   D(30,20,21,22)         12.4238         estimate D2E/DX2                !
 ! D87   D(30,20,21,23)       -160.0097         estimate D2E/DX2                !
 ! D88   D(32,20,21,22)        130.0319         estimate D2E/DX2                !
 ! D89   D(32,20,21,23)        -42.4016         estimate D2E/DX2                !
 ! D90   D(56,20,21,22)       -109.8483         estimate D2E/DX2                !
 ! D91   D(56,20,21,23)         77.7182         estimate D2E/DX2                !
 ! D92   D(21,20,30,7)         168.9447         estimate D2E/DX2                !
 ! D93   D(21,20,30,31)        -12.2739         estimate D2E/DX2                !
 ! D94   D(32,20,30,7)          51.9236         estimate D2E/DX2                !
 ! D95   D(32,20,30,31)       -129.2949         estimate D2E/DX2                !
 ! D96   D(56,20,30,7)         -68.5001         estimate D2E/DX2                !
 ! D97   D(56,20,30,31)        110.2814         estimate D2E/DX2                !
 ! D98   D(21,20,56,57)         61.3853         estimate D2E/DX2                !
 ! D99   D(21,20,56,58)       -177.9052         estimate D2E/DX2                !
 ! D100  D(21,20,56,59)        -58.3809         estimate D2E/DX2                !
 ! D101  D(30,20,56,57)        -58.0197         estimate D2E/DX2                !
 ! D102  D(30,20,56,58)         62.6898         estimate D2E/DX2                !
 ! D103  D(30,20,56,59)       -177.7859         estimate D2E/DX2                !
 ! D104  D(32,20,56,57)       -178.7285         estimate D2E/DX2                !
 ! D105  D(32,20,56,58)        -58.019          estimate D2E/DX2                !
 ! D106  D(32,20,56,59)         61.5053         estimate D2E/DX2                !
 ! D107  D(20,21,23,24)         -3.8333         estimate D2E/DX2                !
 ! D108  D(20,21,23,25)        174.7738         estimate D2E/DX2                !
 ! D109  D(22,21,23,24)       -175.7166         estimate D2E/DX2                !
 ! D110  D(22,21,23,25)          2.8904         estimate D2E/DX2                !
 ! D111  D(21,23,25,26)        168.5092         estimate D2E/DX2                !
 ! D112  D(21,23,25,33)         51.4263         estimate D2E/DX2                !
 ! D113  D(21,23,25,52)        -68.9045         estimate D2E/DX2                !
 ! D114  D(24,23,25,26)        -12.8581         estimate D2E/DX2                !
 ! D115  D(24,23,25,33)       -129.941          estimate D2E/DX2                !
 ! D116  D(24,23,25,52)        109.7282         estimate D2E/DX2                !
 ! D117  D(23,25,26,27)         12.9659         estimate D2E/DX2                !
 ! D118  D(23,25,26,28)       -159.4961         estimate D2E/DX2                !
 ! D119  D(33,25,26,27)        130.7069         estimate D2E/DX2                !
 ! D120  D(33,25,26,28)        -41.7551         estimate D2E/DX2                !
 ! D121  D(52,25,26,27)       -109.2825         estimate D2E/DX2                !
 ! D122  D(52,25,26,28)         78.2555         estimate D2E/DX2                !
 ! D123  D(23,25,52,53)        -58.1927         estimate D2E/DX2                !
 ! D124  D(23,25,52,54)         62.5408         estimate D2E/DX2                !
 ! D125  D(23,25,52,55)       -177.8881         estimate D2E/DX2                !
 ! D126  D(26,25,52,53)         61.3459         estimate D2E/DX2                !
 ! D127  D(26,25,52,54)       -177.9206         estimate D2E/DX2                !
 ! D128  D(26,25,52,55)        -58.3496         estimate D2E/DX2                !
 ! D129  D(33,25,52,53)       -178.876          estimate D2E/DX2                !
 ! D130  D(33,25,52,54)        -58.1425         estimate D2E/DX2                !
 ! D131  D(33,25,52,55)         61.4286         estimate D2E/DX2                !
 ! D132  D(25,26,28,29)         -3.948          estimate D2E/DX2                !
 ! D133  D(25,26,28,38)        174.5416         estimate D2E/DX2                !
 ! D134  D(27,26,28,29)       -175.8825         estimate D2E/DX2                !
 ! D135  D(27,26,28,38)          2.6071         estimate D2E/DX2                !
 ! D136  D(26,28,38,39)         50.5665         estimate D2E/DX2                !
 ! D137  D(26,28,38,47)        167.8537         estimate D2E/DX2                !
 ! D138  D(26,28,38,48)        -69.4241         estimate D2E/DX2                !
 ! D139  D(29,28,38,39)       -130.924          estimate D2E/DX2                !
 ! D140  D(29,28,38,47)        -13.6368         estimate D2E/DX2                !
 ! D141  D(29,28,38,48)        109.0854         estimate D2E/DX2                !
 ! D142  D(28,38,47,40)         12.6508         estimate D2E/DX2                !
 ! D143  D(28,38,47,41)       -160.3767         estimate D2E/DX2                !
 ! D144  D(39,38,47,40)        130.6467         estimate D2E/DX2                !
 ! D145  D(39,38,47,41)        -42.3808         estimate D2E/DX2                !
 ! D146  D(48,38,47,40)       -109.5926         estimate D2E/DX2                !
 ! D147  D(48,38,47,41)         77.3799         estimate D2E/DX2                !
 ! D148  D(28,38,48,49)        -58.4079         estimate D2E/DX2                !
 ! D149  D(28,38,48,50)         62.3782         estimate D2E/DX2                !
 ! D150  D(28,38,48,51)       -178.0764         estimate D2E/DX2                !
 ! D151  D(39,38,48,49)       -178.9029         estimate D2E/DX2                !
 ! D152  D(39,38,48,50)        -58.1167         estimate D2E/DX2                !
 ! D153  D(39,38,48,51)         61.4286         estimate D2E/DX2                !
 ! D154  D(47,38,48,49)         61.4716         estimate D2E/DX2                !
 ! D155  D(47,38,48,50)       -177.7422         estimate D2E/DX2                !
 ! D156  D(47,38,48,51)        -58.1969         estimate D2E/DX2                !
 ! D157  D(46,41,42,43)        179.4845         estimate D2E/DX2                !
 ! D158  D(46,41,42,44)        -58.7903         estimate D2E/DX2                !
 ! D159  D(46,41,42,45)         57.6448         estimate D2E/DX2                !
 ! D160  D(47,41,42,43)         -0.8965         estimate D2E/DX2                !
 ! D161  D(47,41,42,44)        120.8287         estimate D2E/DX2                !
 ! D162  D(47,41,42,45)       -122.7362         estimate D2E/DX2                !
 ! D163  D(42,41,47,38)        177.8828         estimate D2E/DX2                !
 ! D164  D(42,41,47,40)          5.3459         estimate D2E/DX2                !
 ! D165  D(46,41,47,38)         -2.5001         estimate D2E/DX2                !
 ! D166  D(46,41,47,40)       -175.037          estimate D2E/DX2                !
 --------------------------------------------------------------------------------
 Trust Radius=1.00D-01 FncErr=1.00D-07 GrdErr=1.00D-07 EigMax=2.50D+02 EigMin=1.00D-04
 Number of steps in this run=    373 maximum allowed number of steps=    432.
 GradGradGradGradGradGradGradGradGradGradGradGradGradGradGradGradGradGrad

 Leave Link  103 at Mon Feb  7 16:11:31 2022, MaxMem=  8589934592 cpu:               0.3 elap:               0.0
 (Enter /share/apps/g16.b01_avx2/g16/l202.exe)
 Stoichiometry    C21H37N7O7
 Framework group  C1[X(C21H37N7O7)]
 Deg. of freedom   210
 Full point group                 C1      NOp   1
 Largest Abelian subgroup         C1      NOp   1
 Largest concise Abelian subgroup C1      NOp   1
                         Standard orientation:                         
 ---------------------------------------------------------------------
 Center     Atomic      Atomic             Coordinates (Angstroms)
 Number     Number       Type             X           Y           Z
 ---------------------------------------------------------------------
      1          6           0        5.464554   -0.638517    0.005756
      2          7           0        4.258125    0.109360   -0.258631
      3          1           0        4.401821    1.009503   -0.704352
      4          6           0        3.055906   -0.282714    0.193235
      5          8           0        2.877756   -1.335482    0.805411
      6          6           0        1.902823    0.686981   -0.072265
      7          7           0        0.686641   -0.022684    0.246157
      8          1           0        0.819562   -0.893674    0.749613
      9          6           0        6.631324    0.327057   -0.207526
     10          8           0        6.466682    1.422284   -0.744830
     11          7           0        7.831660   -0.113019    0.204224
     12          1           0        7.966780   -1.040678    0.592307
     13          6           0        9.043889    0.636852   -0.022066
     14          6           0       10.202132   -0.358635    0.084987
     15          8           0       10.037291   -1.469427    0.580206
     16          7           0       11.392150    0.092199   -0.364878
     17          1           0       11.431800    1.013224   -0.772636
     18          1           0        5.449551   -0.962714    1.054859
     19          1           0        9.004480    1.052433   -1.038005
     20          6           0       -1.677246   -0.576867    0.104832
     21          7           0       -2.884587    0.127391   -0.255612
     22          1           0       -2.742236    0.961325   -0.815764
     23          6           0       -4.086916   -0.204259    0.243580
     24          8           0       -4.262656   -1.169029    0.987209
     25          6           0       -5.239983    0.721789   -0.146091
     26          7           0       -6.458724    0.057574    0.247743
     27          1           0       -6.335133   -0.740170    0.861827
     28          6           0       -7.652885    0.373055   -0.284350
     29          8           0       -7.803957    1.292776   -1.088326
     30          6           0       -0.511188    0.355535   -0.228513
     31          8           0       -0.675899    1.368576   -0.908143
     32          1           0       -1.694536   -0.764682    1.186610
     33          1           0       -5.252083    0.849735   -1.236614
     34          6           0       12.609805   -0.685096   -0.287768
     35          1           0       12.366218   -1.641239    0.176832
     36          1           0       13.019878   -0.869897   -1.285349
     37          1           0       13.362601   -0.174785    0.321069
     38          6           0       -8.819487   -0.513882    0.148392
     39          1           0       -8.835302   -0.588339    1.244106
     40          1           0       -9.904749    0.904802   -0.929922
     41          6           0      -11.234604   -0.158891    0.265128
     42          6           0      -12.409679    0.640271   -0.247995
     43          1           0      -12.139585    1.386347   -0.999769
     44          1           0      -13.140570   -0.051357   -0.675026
     45          1           0      -12.887187    1.138510    0.599627
     46          8           0      -11.368941   -1.029922    1.119695
     47          7           0      -10.031122    0.138820   -0.279802
     48          6           0       -8.690275   -1.924911   -0.435326
     49          1           0       -8.652223   -1.881310   -1.528142
     50          1           0       -7.787862   -2.427312   -0.073500
     51          1           0       -9.559623   -2.511302   -0.129436
     52          6           0       -5.099169    2.098427    0.510474
     53          1           0       -5.064362    1.997925    1.599466
     54          1           0       -4.190501    2.608926    0.177282
     55          1           0       -5.960651    2.711049    0.235290
     56          6           0       -1.553823   -1.915973   -0.627585
     57          1           0       -1.511642   -1.755146   -1.709034
     58          1           0       -0.654533   -2.457786   -0.319692
     59          1           0       -2.424927   -2.530986   -0.390898
     60          6           0        2.047896    1.972188    0.747433
     61          1           0        2.093900    1.738816    1.815394
     62          1           0        2.952573    2.521801    0.470772
     63          1           0        1.183840    2.613080    0.558145
     64          6           0        5.582889   -1.873185   -0.892089
     65          1           0        5.625092   -1.575817   -1.944176
     66          1           0        6.480094   -2.453357   -0.656842
     67          1           0        4.709920   -2.510542   -0.735012
     68          6           0        9.197271    1.786367    0.978279
     69          1           0        8.331096    2.446766    0.895754
     70          1           0        9.255853    1.396719    1.998770
     71          1           0       10.098334    2.374265    0.778125
     72          1           0        1.883684    0.946630   -1.138986
 ---------------------------------------------------------------------
 Rotational constants (GHZ):           0.6299572           0.0189413           0.0186343
 Leave Link  202 at Mon Feb  7 16:11:31 2022, MaxMem=  8589934592 cpu:               0.2 elap:               0.0
 (Enter /share/apps/g16.b01_avx2/g16/l301.exe)
 Standard basis: 6-31+G(d,p) (6D, 7F)
 Ernie: Thresh=  0.10000D-02 Tol=  0.10000D-05 Strict=F.
 There are   850 symmetry adapted cartesian basis functions of A   symmetry.
 There are   850 symmetry adapted basis functions of A   symmetry.
   850 basis functions,  1379 primitive gaussians,   850 cartesian basis functions
   134 alpha electrons      134 beta electrons
       nuclear repulsion energy      3495.8413664976 Hartrees.
 IExCor= 1009 DFT=T Ex+Corr=PBE1PBE ExCW=0 ScaHFX=  0.250000
 ScaDFX=  0.750000  0.750000  1.000000  1.000000 ScalE2=  1.000000  1.000000
 IRadAn=  99590 IRanWt=     -1 IRanGd=            0 ICorTp=0 IEmpDi=131
 NAtoms=   72 NActive=   72 NUniq=   72 SFac= 1.00D+00 NAtFMM=   60 NAOKFM=T Big=T
 Integral buffers will be    131072 words long.
 Raffenetti 2 integral format.
 Two-electron integral symmetry is turned on.
 R6Disp:  Grimme-D3 Dispersion energy=       -0.0481895539 Hartrees.
 Nuclear repulsion after empirical dispersion term =     3495.7931769437 Hartrees.
 Leave Link  301 at Mon Feb  7 16:11:31 2022, MaxMem=  8589934592 cpu:               1.4 elap:               0.1
 (Enter /share/apps/g16.b01_avx2/g16/l302.exe)
 NPDir=0 NMtPBC=     1 NCelOv=     1 NCel=       1 NClECP=     1 NCelD=      1
         NCelK=      1 NCelE2=     1 NClLst=     1 CellRange=     0.0.
 One-electron integrals computed using PRISM.
 One-electron integral symmetry used in STVInt
 NBasis=   850 RedAO= T EigKep=  4.36D-06  NBF=   850
 NBsUse=   850 1.00D-06 EigRej= -1.00D+00 NBFU=   850
 Precomputing XC quadrature grid using
 IXCGrd= 4 IRadAn=       99590 IRanWt=          -1 IRanGd=           0 AccXCQ= 0.00D+00.
 Generated NRdTot=       0 NPtTot=           0 NUsed=           0 NTot=          32
 NSgBfM=   698   698   698   698   698 MxSgAt=    72 MxSgA2=    72.
 Leave Link  302 at Mon Feb  7 16:11:32 2022, MaxMem=  8589934592 cpu:              19.6 elap:               0.8
 (Enter /share/apps/g16.b01_avx2/g16/l303.exe)
 DipDrv:  MaxL=1.
 Leave Link  303 at Mon Feb  7 16:11:33 2022, MaxMem=  8589934592 cpu:               1.8 elap:               0.1
 (Enter /share/apps/g16.b01_avx2/g16/l401.exe)
 ExpMin= 4.38D-02 ExpMax= 5.48D+03 ExpMxC= 8.25D+02 IAcc=4 IRadAn=    199590 AccDes= 0.00D+00
 Harris functional with IExCor= 1009 and IRadAn=  199590 diagonalized for initial guess.
 HarFok:  IExCor= 1009 AccDes= 0.00D+00 IRadAn=    199590 IDoV= 1 UseB2=F ITyADJ=14
 ICtDFT=  3500011 ScaDFX=  1.000000  1.000000  1.000000  1.000000
 FoFCou: FMM=F IPFlag=           0 FMFlag=      100000 FMFlg1=        2001
         NFxFlg=           0 DoJE=T BraDBF=F KetDBF=T FulRan=T
         wScrn=  0.000000 ICntrl=       500 IOpCl=  0 I1Cent=   200000004 NGrid=           0
         NMat0=    1 NMatS0=      1 NMatT0=    0 NMatD0=    1 NMtDS0=    0 NMtDT0=    0
 Petite list used in FoFCou.
 Harris En= -1731.10243491183    
 JPrj=0 DoOrth=F DoCkMO=F.
 Leave Link  401 at Mon Feb  7 16:11:39 2022, MaxMem=  8589934592 cpu:             137.7 elap:               5.8
 (Enter /share/apps/g16.b01_avx2/g16/l502.exe)
 Integral symmetry usage will be decided dynamically.
 Closed shell SCF:
 Using DIIS extrapolation, IDIIS=  1040.
 NGot=  8589934592 LenX=  8588460558 LenY=  8587737208
 Requested convergence on RMS density matrix=1.00D-08 within 128 cycles.
 Requested convergence on MAX density matrix=1.00D-06.
 Requested convergence on             energy=1.00D-06.
 No special actions if energy rises.
 Fock matrices will be formed incrementally for  20 cycles.

 Cycle   1  Pass 1  IDiag  1:
 FoFJK:  IHMeth= 1 ICntrl=       0 DoSepK=F KAlg= 0 I1Cent=           0 FoldK=F
 IRaf= 660000000 NMat=       1 IRICut=       1 DoRegI=T DoRafI=F ISym2E= 0 IDoP0=0 IntGTp=1.
 FoFCou: FMM=T IPFlag=           0 FMFlag=      100000 FMFlg1=        2001
         NFxFlg=           0 DoJE=F BraDBF=F KetDBF=F FulRan=T
         wScrn=  0.000000 ICntrl=         0 IOpCl=  0 I1Cent=           0 NGrid=           0
         NMat0=    1 NMatS0=      1 NMatT0=    0 NMatD0=    1 NMtDS0=    0 NMtDT0=    0
 Symmetry not used in FoFCou.
 FMM levels:  10  Number of levels for PrismC:   9
 E= -1729.84283722751    
 DIIS: error= 1.46D-02 at cycle   1 NSaved=   1.
 NSaved= 1 IEnMin= 1 EnMin= -1729.84283722751     IErMin= 1 ErrMin= 1.46D-02
 ErrMax= 1.46D-02  0.00D+00 EMaxC= 1.00D-01 BMatC= 1.05D+00 BMatP= 1.05D+00
 IDIUse=3 WtCom= 8.54D-01 WtEn= 1.46D-01
 Coeff-Com:  0.100D+01
 Coeff-En:   0.100D+01
 Coeff:      0.100D+01
 Gap=     0.263 Goal=   None    Shift=    0.000
 GapD=    0.263 DampG=1.000 DampE=0.500 DampFc=0.5000 IDamp=-1.
 Damping current iteration by 5.00D-01
 RMSDP=1.58D-02 MaxDP=3.83D+00              OVMax= 2.23D-01

 Cycle   2  Pass 1  IDiag  1:
 RMSU=  6.68D-03    CP:  1.26D+00
 E= -1730.13200177102     Delta-E=       -0.289164543511 Rises=F Damp=T
 DIIS: error= 7.19D-03 at cycle   2 NSaved=   2.
 NSaved= 2 IEnMin= 2 EnMin= -1730.13200177102     IErMin= 2 ErrMin= 7.19D-03
 ErrMax= 7.19D-03  0.00D+00 EMaxC= 1.00D-01 BMatC= 1.44D-01 BMatP= 1.05D+00
 IDIUse=3 WtCom= 9.28D-01 WtEn= 7.19D-02
 Coeff-Com:  0.185D+00 0.815D+00
 Coeff-En:   0.293D+00 0.707D+00
 Coeff:      0.193D+00 0.807D+00
 Gap=     0.250 Goal=   None    Shift=    0.000
 RMSDP=6.84D-03 MaxDP=1.67D+00 DE=-2.89D-01 OVMax= 1.46D-01

 Cycle   3  Pass 1  IDiag  1:
 RMSU=  2.43D-03    CP:  9.84D-01  3.21D-01
 E= -1730.63294654044     Delta-E=       -0.500944769419 Rises=F Damp=F
 DIIS: error= 6.27D-03 at cycle   3 NSaved=   3.
 NSaved= 3 IEnMin= 3 EnMin= -1730.63294654044     IErMin= 3 ErrMin= 6.27D-03
 ErrMax= 6.27D-03  0.00D+00 EMaxC= 1.00D-01 BMatC= 1.19D-01 BMatP= 1.44D-01
 IDIUse=3 WtCom= 9.37D-01 WtEn= 6.27D-02
 Coeff-Com:  0.386D-01 0.471D+00 0.490D+00
 Coeff-En:   0.000D+00 0.000D+00 0.100D+01
 Coeff:      0.362D-01 0.442D+00 0.522D+00
 Gap=     0.246 Goal=   None    Shift=    0.000
 RMSDP=1.37D-03 MaxDP=1.83D-01 DE=-5.01D-01 OVMax= 6.68D-02

 Cycle   4  Pass 1  IDiag  1:
 RMSU=  1.24D-03    CP:  1.01D+00  3.86D-01  9.22D-01
 E= -1730.72161176906     Delta-E=       -0.088665228619 Rises=F Damp=F
 DIIS: error= 1.93D-03 at cycle   4 NSaved=   4.
 NSaved= 4 IEnMin= 4 EnMin= -1730.72161176906     IErMin= 4 ErrMin= 1.93D-03
 ErrMax= 1.93D-03  0.00D+00 EMaxC= 1.00D-01 BMatC= 1.43D-02 BMatP= 1.19D-01
 IDIUse=3 WtCom= 9.81D-01 WtEn= 1.93D-02
 Coeff-Com: -0.791D-02 0.610D-01 0.275D+00 0.672D+00
 Coeff-En:   0.000D+00 0.000D+00 0.111D+00 0.889D+00
 Coeff:     -0.776D-02 0.599D-01 0.272D+00 0.676D+00
 Gap=     0.238 Goal=   None    Shift=    0.000
 RMSDP=4.52D-04 MaxDP=4.92D-02 DE=-8.87D-02 OVMax= 1.93D-02

 Cycle   5  Pass 1  IDiag  1:
 RMSU=  2.29D-04    CP:  9.99D-01  3.62D-01  9.57D-01  7.36D-01
 E= -1730.73328921227     Delta-E=       -0.011677443205 Rises=F Damp=F
 DIIS: error= 3.93D-04 at cycle   5 NSaved=   5.
 NSaved= 5 IEnMin= 5 EnMin= -1730.73328921227     IErMin= 5 ErrMin= 3.93D-04
 ErrMax= 3.93D-04  0.00D+00 EMaxC= 1.00D-01 BMatC= 6.00D-04 BMatP= 1.43D-02
 IDIUse=3 WtCom= 9.96D-01 WtEn= 3.93D-03
 Coeff-Com: -0.483D-02 0.127D-01 0.113D+00 0.329D+00 0.550D+00
 Coeff-En:   0.000D+00 0.000D+00 0.000D+00 0.000D+00 0.100D+01
 Coeff:     -0.482D-02 0.127D-01 0.112D+00 0.328D+00 0.552D+00
 Gap=     0.236 Goal=   None    Shift=    0.000
 RMSDP=8.33D-05 MaxDP=9.48D-03 DE=-1.17D-02 OVMax= 4.93D-03

 Cycle   6  Pass 1  IDiag  1:
 RMSU=  6.05D-05    CP:  9.97D-01  3.61D-01  9.61D-01  7.28D-01  7.94D-01
 E= -1730.73378143440     Delta-E=       -0.000492222133 Rises=F Damp=F
 DIIS: error= 1.15D-04 at cycle   6 NSaved=   6.
 NSaved= 6 IEnMin= 6 EnMin= -1730.73378143440     IErMin= 6 ErrMin= 1.15D-04
 ErrMax= 1.15D-04  0.00D+00 EMaxC= 1.00D-01 BMatC= 4.61D-05 BMatP= 6.00D-04
 IDIUse=3 WtCom= 9.99D-01 WtEn= 1.15D-03
 Coeff-Com: -0.190D-02 0.187D-02 0.357D-01 0.112D+00 0.283D+00 0.570D+00
 Coeff-En:   0.000D+00 0.000D+00 0.000D+00 0.000D+00 0.000D+00 0.100D+01
 Coeff:     -0.190D-02 0.187D-02 0.357D-01 0.112D+00 0.282D+00 0.570D+00
 Gap=     0.237 Goal=   None    Shift=    0.000
 RMSDP=3.19D-05 MaxDP=6.38D-03 DE=-4.92D-04 OVMax= 1.52D-03

 Cycle   7  Pass 1  IDiag  1:
 RMSU=  2.44D-05    CP:  9.97D-01  3.60D-01  9.62D-01  7.32D-01  7.85D-01
                    CP:  7.83D-01
 E= -1730.73381379603     Delta-E=       -0.000032361635 Rises=F Damp=F
 DIIS: error= 4.22D-05 at cycle   7 NSaved=   7.
 NSaved= 7 IEnMin= 7 EnMin= -1730.73381379603     IErMin= 7 ErrMin= 4.22D-05
 ErrMax= 4.22D-05  0.00D+00 EMaxC= 1.00D-01 BMatC= 6.38D-06 BMatP= 4.61D-05
 IDIUse=1 WtCom= 1.00D+00 WtEn= 0.00D+00
 Coeff-Com: -0.831D-03 0.245D-03 0.138D-01 0.444D-01 0.139D+00 0.346D+00
 Coeff-Com:  0.457D+00
 Coeff:     -0.831D-03 0.245D-03 0.138D-01 0.444D-01 0.139D+00 0.346D+00
 Coeff:      0.457D+00
 Gap=     0.237 Goal=   None    Shift=    0.000
 RMSDP=1.17D-05 MaxDP=2.63D-03 DE=-3.24D-05 OVMax= 5.97D-04

 Cycle   8  Pass 1  IDiag  1:
 RMSU=  7.76D-06    CP:  9.97D-01  3.59D-01  9.62D-01  7.33D-01  7.86D-01
                    CP:  7.99D-01  7.29D-01
 E= -1730.73381857450     Delta-E=       -0.000004778467 Rises=F Damp=F
 DIIS: error= 1.34D-05 at cycle   8 NSaved=   8.
 NSaved= 8 IEnMin= 8 EnMin= -1730.73381857450     IErMin= 8 ErrMin= 1.34D-05
 ErrMax= 1.34D-05  0.00D+00 EMaxC= 1.00D-01 BMatC= 5.43D-07 BMatP= 6.38D-06
 IDIUse=1 WtCom= 1.00D+00 WtEn= 0.00D+00
 Coeff-Com: -0.102D-03-0.134D-03 0.107D-02 0.342D-02 0.269D-01 0.781D-01
 Coeff-Com:  0.241D+00 0.650D+00
 Coeff:     -0.102D-03-0.134D-03 0.107D-02 0.342D-02 0.269D-01 0.781D-01
 Coeff:      0.241D+00 0.650D+00
 Gap=     0.237 Goal=   None    Shift=    0.000
 RMSDP=4.20D-06 MaxDP=4.60D-04 DE=-4.78D-06 OVMax= 1.23D-04

 Cycle   9  Pass 1  IDiag  1:
 RMSU=  2.77D-06    CP:  9.97D-01  3.59D-01  9.63D-01  7.33D-01  7.93D-01
                    CP:  7.82D-01  7.32D-01  8.01D-01
 E= -1730.73381898009     Delta-E=       -0.000000405587 Rises=F Damp=F
 DIIS: error= 4.03D-06 at cycle   9 NSaved=   9.
 NSaved= 9 IEnMin= 9 EnMin= -1730.73381898009     IErMin= 9 ErrMin= 4.03D-06
 ErrMax= 4.03D-06  0.00D+00 EMaxC= 1.00D-01 BMatC= 6.23D-08 BMatP= 5.43D-07
 IDIUse=1 WtCom= 1.00D+00 WtEn= 0.00D+00
 Coeff-Com:  0.379D-04-0.105D-03-0.873D-03-0.302D-02-0.639D-03-0.701D-03
 Coeff-Com:  0.666D-01 0.331D+00 0.608D+00
 Coeff:      0.379D-04-0.105D-03-0.873D-03-0.302D-02-0.639D-03-0.701D-03
 Coeff:      0.666D-01 0.331D+00 0.608D+00
 Gap=     0.237 Goal=   None    Shift=    0.000
 RMSDP=1.28D-06 MaxDP=1.72D-04 DE=-4.06D-07 OVMax= 2.61D-05

 Cycle  10  Pass 1  IDiag  1:
 RMSU=  6.15D-07    CP:  9.96D-01  3.59D-01  9.63D-01  7.33D-01  7.95D-01
                    CP:  7.89D-01  7.44D-01  8.40D-01  7.74D-01
 E= -1730.73381903330     Delta-E=       -0.000000053211 Rises=F Damp=F
 DIIS: error= 8.64D-07 at cycle  10 NSaved=  10.
 NSaved=10 IEnMin=10 EnMin= -1730.73381903330     IErMin=10 ErrMin= 8.64D-07
 ErrMax= 8.64D-07  0.00D+00 EMaxC= 1.00D-01 BMatC= 2.56D-09 BMatP= 6.23D-08
 IDIUse=1 WtCom= 1.00D+00 WtEn= 0.00D+00
 Coeff-Com:  0.221D-04-0.380D-04-0.402D-03-0.144D-02-0.153D-02-0.498D-02
 Coeff-Com:  0.134D-01 0.103D+00 0.239D+00 0.653D+00
 Coeff:      0.221D-04-0.380D-04-0.402D-03-0.144D-02-0.153D-02-0.498D-02
 Coeff:      0.134D-01 0.103D+00 0.239D+00 0.653D+00
 Gap=     0.237 Goal=   None    Shift=    0.000
 RMSDP=4.75D-07 MaxDP=1.19D-04 DE=-5.32D-08 OVMax= 1.24D-05

 Cycle  11  Pass 1  IDiag  1:
 RMSU=  2.65D-07    CP:  9.96D-01  3.59D-01  9.63D-01  7.33D-01  7.94D-01
                    CP:  7.89D-01  7.49D-01  8.44D-01  7.88D-01  7.43D-01
 E= -1730.73381903469     Delta-E=       -0.000000001393 Rises=F Damp=F
 DIIS: error= 6.28D-07 at cycle  11 NSaved=  11.
 NSaved=11 IEnMin=11 EnMin= -1730.73381903469     IErMin=11 ErrMin= 6.28D-07
 ErrMax= 6.28D-07  0.00D+00 EMaxC= 1.00D-01 BMatC= 1.20D-09 BMatP= 2.56D-09
 IDIUse=1 WtCom= 1.00D+00 WtEn= 0.00D+00
 Coeff-Com:  0.968D-05-0.111D-04-0.144D-03-0.549D-03-0.892D-03-0.329D-02
 Coeff-Com: -0.341D-03 0.225D-01 0.701D-01 0.433D+00 0.480D+00
 Coeff:      0.968D-05-0.111D-04-0.144D-03-0.549D-03-0.892D-03-0.329D-02
 Coeff:     -0.341D-03 0.225D-01 0.701D-01 0.433D+00 0.480D+00
 Gap=     0.237 Goal=   None    Shift=    0.000
 RMSDP=1.59D-07 MaxDP=2.64D-05 DE=-1.39D-09 OVMax= 5.79D-06

 Cycle  12  Pass 1  IDiag  1:
 RMSU=  9.82D-08    CP:  9.96D-01  3.59D-01  9.63D-01  7.33D-01  7.94D-01
                    CP:  7.89D-01  7.48D-01  8.51D-01  7.87D-01  8.22D-01
                    CP:  6.63D-01
 E= -1730.73381903565     Delta-E=       -0.000000000960 Rises=F Damp=F
 DIIS: error= 1.37D-07 at cycle  12 NSaved=  12.
 NSaved=12 IEnMin=12 EnMin= -1730.73381903565     IErMin=12 ErrMin= 1.37D-07
 ErrMax= 1.37D-07  0.00D+00 EMaxC= 1.00D-01 BMatC= 7.30D-11 BMatP= 1.20D-09
 IDIUse=1 WtCom= 1.00D+00 WtEn= 0.00D+00
 Coeff-Com:  0.200D-05-0.836D-06-0.164D-04-0.846D-04-0.223D-03-0.101D-02
 Coeff-Com: -0.196D-02-0.265D-02 0.896D-03 0.131D+00 0.244D+00 0.630D+00
 Coeff:      0.200D-05-0.836D-06-0.164D-04-0.846D-04-0.223D-03-0.101D-02
 Coeff:     -0.196D-02-0.265D-02 0.896D-03 0.131D+00 0.244D+00 0.630D+00
 Gap=     0.237 Goal=   None    Shift=    0.000
 RMSDP=5.21D-08 MaxDP=9.05D-06 DE=-9.60D-10 OVMax= 1.38D-06

 Cycle  13  Pass 1  IDiag  1:
 RMSU=  2.98D-08    CP:  9.96D-01  3.59D-01  9.63D-01  7.33D-01  7.94D-01
                    CP:  7.89D-01  7.48D-01  8.51D-01  7.92D-01  8.40D-01
                    CP:  7.14D-01  7.09D-01
 E= -1730.73381903573     Delta-E=       -0.000000000075 Rises=F Damp=F
 DIIS: error= 4.60D-08 at cycle  13 NSaved=  13.
 NSaved=13 IEnMin=13 EnMin= -1730.73381903573     IErMin=13 ErrMin= 4.60D-08
 ErrMax= 4.60D-08  0.00D+00 EMaxC= 1.00D-01 BMatC= 1.12D-11 BMatP= 7.30D-11
 IDIUse=1 WtCom= 1.00D+00 WtEn= 0.00D+00
 Coeff-Com: -0.222D-07 0.780D-06 0.956D-05 0.195D-04-0.112D-04-0.165D-03
 Coeff-Com: -0.107D-02-0.423D-02-0.842D-02 0.215D-01 0.806D-01 0.355D+00
 Coeff-Com:  0.556D+00
 Coeff:     -0.222D-07 0.780D-06 0.956D-05 0.195D-04-0.112D-04-0.165D-03
 Coeff:     -0.107D-02-0.423D-02-0.842D-02 0.215D-01 0.806D-01 0.355D+00
 Coeff:      0.556D+00
 Gap=     0.237 Goal=   None    Shift=    0.000
 RMSDP=1.52D-08 MaxDP=2.04D-06 DE=-7.55D-11 OVMax= 4.43D-07

 Cycle  14  Pass 1  IDiag  1:
 RMSU=  1.10D-08    CP:  9.96D-01  3.59D-01  9.63D-01  7.33D-01  7.94D-01
                    CP:  7.89D-01  7.48D-01  8.51D-01  7.92D-01  8.47D-01
                    CP:  7.17D-01  7.21D-01  7.59D-01
 E= -1730.73381903568     Delta-E=        0.000000000044 Rises=F Damp=F
 DIIS: error= 1.07D-08 at cycle  14 NSaved=  14.
 NSaved=14 IEnMin=13 EnMin= -1730.73381903573     IErMin=14 ErrMin= 1.07D-08
 ErrMax= 1.07D-08  0.00D+00 EMaxC= 1.00D-01 BMatC= 5.22D-13 BMatP= 1.12D-11
 IDIUse=1 WtCom= 1.00D+00 WtEn= 0.00D+00
 Coeff-Com: -0.134D-06 0.319D-06 0.567D-05 0.148D-04 0.147D-04 0.173D-04
 Coeff-Com: -0.272D-03-0.155D-02-0.362D-02-0.242D-02 0.125D-01 0.952D-01
 Coeff-Com:  0.234D+00 0.666D+00
 Coeff:     -0.134D-06 0.319D-06 0.567D-05 0.148D-04 0.147D-04 0.173D-04
 Coeff:     -0.272D-03-0.155D-02-0.362D-02-0.242D-02 0.125D-01 0.952D-01
 Coeff:      0.234D+00 0.666D+00
 Gap=     0.237 Goal=   None    Shift=    0.000
 RMSDP=4.21D-09 MaxDP=3.91D-07 DE= 4.37D-11 OVMax= 1.02D-07

 SCF Done:  E(RPBE1PBE) =  -1730.73381904     A.U. after   14 cycles
            NFock= 14  Conv=0.42D-08     -V/T= 2.0086
 KE= 1.715894299530D+03 PE=-1.102670886099D+04 EE= 4.084287565480D+03
 Leave Link  502 at Mon Feb  7 16:13:15 2022, MaxMem=  8589934592 cpu:            2308.5 elap:              96.5
 (Enter /share/apps/g16.b01_avx2/g16/l601.exe)
 Copying SCF densities to generalized density rwf, IOpCl= 0 IROHF=0.

 **********************************************************************

            Population analysis using the SCF Density.

 **********************************************************************

 Orbital symmetries:
       Occupied  (A) (A) (A) (A) (A) (A) (A) (A) (A) (A) (A) (A)
                 (A) (A) (A) (A) (A) (A) (A) (A) (A) (A) (A) (A)
                 (A) (A) (A) (A) (A) (A) (A) (A) (A) (A) (A) (A)
                 (A) (A) (A) (A) (A) (A) (A) (A) (A) (A) (A) (A)
                 (A) (A) (A) (A) (A) (A) (A) (A) (A) (A) (A) (A)
                 (A) (A) (A) (A) (A) (A) (A) (A) (A) (A) (A) (A)
                 (A) (A) (A) (A) (A) (A) (A) (A) (A) (A) (A) (A)
                 (A) (A) (A) (A) (A) (A) (A) (A) (A) (A) (A) (A)
                 (A) (A) (A) (A) (A) (A) (A) (A) (A) (A) (A) (A)
                 (A) (A) (A) (A) (A) (A) (A) (A) (A) (A) (A) (A)
                 (A) (A) (A) (A) (A) (A) (A) (A) (A) (A) (A) (A)
                 (A) (A)
       Virtual   (A) (A) (A) (A) (A) (A) (A) (A) (A) (A) (A) (A)
                 (A) (A) (A) (A) (A) (A) (A) (A) (A) (A) (A) (A)
                 (A) (A) (A) (A) (A) (A) (A) (A) (A) (A) (A) (A)
                 (A) (A) (A) (A) (A) (A) (A) (A) (A) (A) (A) (A)
                 (A) (A) (A) (A) (A) (A) (A) (A) (A) (A) (A) (A)
                 (A) (A) (A) (A) (A) (A) (A) (A) (A) (A) (A) (A)
                 (A) (A) (A) (A) (A) (A) (A) (A) (A) (A) (A) (A)
                 (A) (A) (A) (A) (A) (A) (A) (A) (A) (A) (A) (A)
                 (A) (A) (A) (A) (A) (A) (A) (A) (A) (A) (A) (A)
                 (A) (A) (A) (A) (A) (A) (A) (A) (A) (A) (A) (A)
                 (A) (A) (A) (A) (A) (A) (A) (A) (A) (A) (A) (A)
                 (A) (A) (A) (A) (A) (A) (A) (A) (A) (A) (A) (A)
                 (A) (A) (A) (A) (A) (A) (A) (A) (A) (A) (A) (A)
                 (A) (A) (A) (A) (A) (A) (A) (A) (A) (A) (A) (A)
                 (A) (A) (A) (A) (A) (A) (A) (A) (A) (A) (A) (A)
                 (A) (A) (A) (A) (A) (A) (A) (A) (A) (A) (A) (A)
                 (A) (A) (A) (A) (A) (A) (A) (A) (A) (A) (A) (A)
                 (A) (A) (A) (A) (A) (A) (A) (A) (A) (A) (A) (A)
                 (A) (A) (A) (A) (A) (A) (A) (A) (A) (A) (A) (A)
                 (A) (A) (A) (A) (A) (A) (A) (A) (A) (A) (A) (A)
                 (A) (A) (A) (A) (A) (A) (A) (A) (A) (A) (A) (A)
                 (A) (A) (A) (A) (A) (A) (A) (A) (A) (A) (A) (A)
                 (A) (A) (A) (A) (A) (A) (A) (A) (A) (A) (A) (A)
                 (A) (A) (A) (A) (A) (A) (A) (A) (A) (A) (A) (A)
                 (A) (A) (A) (A) (A) (A) (A) (A) (A) (A) (A) (A)
                 (A) (A) (A) (A) (A) (A) (A) (A) (A) (A) (A) (A)
                 (A) (A) (A) (A) (A) (A) (A) (A) (A) (A) (A) (A)
                 (A) (A) (A) (A) (A) (A) (A) (A) (A) (A) (A) (A)
                 (A) (A) (A) (A) (A) (A) (A) (A) (A) (A) (A) (A)
                 (A) (A) (A) (A) (A) (A) (A) (A) (A) (A) (A) (A)
                 (A) (A) (A) (A) (A) (A) (A) (A) (A) (A) (A) (A)
                 (A) (A) (A) (A) (A) (A) (A) (A) (A) (A) (A) (A)
                 (A) (A) (A) (A) (A) (A) (A) (A) (A) (A) (A) (A)
                 (A) (A) (A) (A) (A) (A) (A) (A) (A) (A) (A) (A)
                 (A) (A) (A) (A) (A) (A) (A) (A) (A) (A) (A) (A)
                 (A) (A) (A) (A) (A) (A) (A) (A) (A) (A) (A) (A)
                 (A) (A) (A) (A) (A) (A) (A) (A) (A) (A) (A) (A)
                 (A) (A) (A) (A) (A) (A) (A) (A) (A) (A) (A) (A)
                 (A) (A) (A) (A) (A) (A) (A) (A) (A) (A) (A) (A)
                 (A) (A) (A) (A) (A) (A) (A) (A) (A) (A) (A) (A)
                 (A) (A) (A) (A) (A) (A) (A) (A) (A) (A) (A) (A)
                 (A) (A) (A) (A) (A) (A) (A) (A) (A) (A) (A) (A)
                 (A) (A) (A) (A) (A) (A) (A) (A) (A) (A) (A) (A)
                 (A) (A) (A) (A) (A) (A) (A) (A) (A) (A) (A) (A)
                 (A) (A) (A) (A) (A) (A) (A) (A) (A) (A) (A) (A)
                 (A) (A) (A) (A) (A) (A) (A) (A) (A) (A) (A) (A)
                 (A) (A) (A) (A) (A) (A) (A) (A) (A) (A) (A) (A)
                 (A) (A) (A) (A) (A) (A) (A) (A) (A) (A) (A) (A)
                 (A) (A) (A) (A) (A) (A) (A) (A) (A) (A) (A) (A)
                 (A) (A) (A) (A) (A) (A) (A) (A) (A) (A) (A) (A)
                 (A) (A) (A) (A) (A) (A) (A) (A) (A) (A) (A) (A)
                 (A) (A) (A) (A) (A) (A) (A) (A) (A) (A) (A) (A)
                 (A) (A) (A) (A) (A) (A) (A) (A) (A) (A) (A) (A)
                 (A) (A) (A) (A) (A) (A) (A) (A) (A) (A) (A) (A)
                 (A) (A) (A) (A) (A) (A) (A) (A) (A) (A) (A) (A)
                 (A) (A) (A) (A) (A) (A) (A) (A) (A) (A) (A) (A)
                 (A) (A) (A) (A) (A) (A) (A) (A) (A) (A) (A) (A)
                 (A) (A) (A) (A) (A) (A) (A) (A) (A) (A) (A) (A)
                 (A) (A) (A) (A) (A) (A) (A) (A) (A) (A) (A) (A)
                 (A) (A) (A) (A) (A) (A) (A) (A)
 The electronic state is 1-A.
 Alpha  occ. eigenvalues --  -19.23079 -19.22735 -19.22208 -19.21804 -19.21277
 Alpha  occ. eigenvalues --  -19.20513 -19.18139 -14.46582 -14.45396 -14.44859
 Alpha  occ. eigenvalues --  -14.44435 -14.43949 -14.43233 -14.41840 -10.36910
 Alpha  occ. eigenvalues --  -10.36411 -10.35891 -10.35478 -10.34958 -10.34172
 Alpha  occ. eigenvalues --  -10.32716 -10.31409 -10.30736 -10.30302 -10.29862
 Alpha  occ. eigenvalues --  -10.29290 -10.28959 -10.28167 -10.25555 -10.24778
 Alpha  occ. eigenvalues --  -10.24429 -10.23995 -10.23503 -10.22968 -10.22588
 Alpha  occ. eigenvalues --   -1.10696  -1.10013  -1.09506  -1.08981  -1.08407
 Alpha  occ. eigenvalues --   -1.07590  -1.05418  -0.98706  -0.98436  -0.97899
 Alpha  occ. eigenvalues --   -0.97454  -0.96954  -0.96235  -0.94572  -0.84556
 Alpha  occ. eigenvalues --   -0.83281  -0.81913  -0.80430  -0.78975  -0.77632
 Alpha  occ. eigenvalues --   -0.75840  -0.74224  -0.71486  -0.70773  -0.70077
 Alpha  occ. eigenvalues --   -0.69208  -0.67945  -0.65791  -0.64522  -0.62899
 Alpha  occ. eigenvalues --   -0.62410  -0.61742  -0.61176  -0.60555  -0.60329
 Alpha  occ. eigenvalues --   -0.59124  -0.58171  -0.55604  -0.53076  -0.52867
 Alpha  occ. eigenvalues --   -0.52153  -0.51651  -0.51327  -0.50760  -0.50185
 Alpha  occ. eigenvalues --   -0.50048  -0.49642  -0.49223  -0.48455  -0.47896
 Alpha  occ. eigenvalues --   -0.47614  -0.47123  -0.46968  -0.46621  -0.46209
 Alpha  occ. eigenvalues --   -0.46113  -0.45990  -0.45319  -0.44730  -0.44648
 Alpha  occ. eigenvalues --   -0.44068  -0.43631  -0.43580  -0.43049  -0.42309
 Alpha  occ. eigenvalues --   -0.42215  -0.41731  -0.41356  -0.41231  -0.40887
 Alpha  occ. eigenvalues --   -0.40769  -0.40654  -0.40533  -0.40207  -0.40096
 Alpha  occ. eigenvalues --   -0.39652  -0.39276  -0.39023  -0.38865  -0.38600
 Alpha  occ. eigenvalues --   -0.38045  -0.37524  -0.37457  -0.36718  -0.34993
 Alpha  occ. eigenvalues --   -0.30920  -0.30685  -0.30141  -0.29976  -0.29638
 Alpha  occ. eigenvalues --   -0.29358  -0.29119  -0.28756  -0.28531  -0.28084
 Alpha  occ. eigenvalues --   -0.27753  -0.27290  -0.25791  -0.25553
 Alpha virt. eigenvalues --   -0.01882  -0.00790  -0.00425  -0.00022   0.00496
 Alpha virt. eigenvalues --    0.01041   0.01077   0.01341   0.01595   0.01840
 Alpha virt. eigenvalues --    0.01981   0.02236   0.02359   0.02542   0.02913
 Alpha virt. eigenvalues --    0.03107   0.03384   0.03929   0.03960   0.04478
 Alpha virt. eigenvalues --    0.04510   0.04955   0.05099   0.05421   0.05511
 Alpha virt. eigenvalues --    0.05562   0.05906   0.06136   0.06534   0.06790
 Alpha virt. eigenvalues --    0.06955   0.07038   0.07249   0.07436   0.07751
 Alpha virt. eigenvalues --    0.07974   0.08201   0.08366   0.08507   0.08771
 Alpha virt. eigenvalues --    0.09285   0.09469   0.09637   0.09829   0.10058
 Alpha virt. eigenvalues --    0.10158   0.10464   0.10863   0.11182   0.11330
 Alpha virt. eigenvalues --    0.11361   0.11558   0.11683   0.11868   0.12106
 Alpha virt. eigenvalues --    0.12247   0.12411   0.12615   0.12836   0.13104
 Alpha virt. eigenvalues --    0.13674   0.13834   0.14213   0.14313   0.14646
 Alpha virt. eigenvalues --    0.14828   0.15044   0.15166   0.15322   0.15586
 Alpha virt. eigenvalues --    0.15747   0.15856   0.16204   0.16329   0.16610
 Alpha virt. eigenvalues --    0.17057   0.17161   0.17232   0.17640   0.17752
 Alpha virt. eigenvalues --    0.18008   0.18114   0.18326   0.18645   0.18903
 Alpha virt. eigenvalues --    0.19157   0.19231   0.19419   0.19670   0.19793
 Alpha virt. eigenvalues --    0.20144   0.20262   0.20497   0.20656   0.20766
 Alpha virt. eigenvalues --    0.21058   0.21302   0.21458   0.21629   0.21962
 Alpha virt. eigenvalues --    0.22124   0.22467   0.22656   0.22984   0.23095
 Alpha virt. eigenvalues --    0.23351   0.23644   0.23783   0.23898   0.24235
 Alpha virt. eigenvalues --    0.24340   0.24545   0.24660   0.24737   0.24858
 Alpha virt. eigenvalues --    0.25029   0.25207   0.25445   0.25525   0.25815
 Alpha virt. eigenvalues --    0.26121   0.26274   0.26325   0.26765   0.26908
 Alpha virt. eigenvalues --    0.27050   0.27173   0.27427   0.27882   0.28041
 Alpha virt. eigenvalues --    0.28185   0.28424   0.28660   0.28920   0.29004
 Alpha virt. eigenvalues --    0.29210   0.29515   0.29834   0.29950   0.30190
 Alpha virt. eigenvalues --    0.30400   0.30761   0.30796   0.31221   0.31325
 Alpha virt. eigenvalues --    0.31635   0.31664   0.31846   0.32329   0.32687
 Alpha virt. eigenvalues --    0.33041   0.33303   0.33415   0.33877   0.33966
 Alpha virt. eigenvalues --    0.34466   0.34512   0.34826   0.35015   0.35199
 Alpha virt. eigenvalues --    0.35282   0.35456   0.35689   0.36104   0.36207
 Alpha virt. eigenvalues --    0.36529   0.36874   0.37071   0.37239   0.37354
 Alpha virt. eigenvalues --    0.37810   0.38030   0.38268   0.38388   0.38712
 Alpha virt. eigenvalues --    0.39020   0.39184   0.39488   0.39695   0.39882
 Alpha virt. eigenvalues --    0.40624   0.40788   0.41119   0.41279   0.42024
 Alpha virt. eigenvalues --    0.42147   0.42486   0.42799   0.43355   0.43484
 Alpha virt. eigenvalues --    0.43877   0.44461   0.44544   0.44862   0.45224
 Alpha virt. eigenvalues --    0.45468   0.45830   0.46075   0.46563   0.47284
 Alpha virt. eigenvalues --    0.47783   0.48060   0.48538   0.48715   0.49222
 Alpha virt. eigenvalues --    0.49595   0.49708   0.49935   0.50346   0.50556
 Alpha virt. eigenvalues --    0.50736   0.51071   0.53642   0.53838   0.54705
 Alpha virt. eigenvalues --    0.55697   0.56519   0.57254   0.64565   0.65286
 Alpha virt. eigenvalues --    0.65914   0.67117   0.67376   0.67398   0.67680
 Alpha virt. eigenvalues --    0.68047   0.68635   0.68814   0.69200   0.69540
 Alpha virt. eigenvalues --    0.70038   0.70778   0.71054   0.71713   0.71796
 Alpha virt. eigenvalues --    0.72198   0.72260   0.73161   0.73569   0.74031
 Alpha virt. eigenvalues --    0.74383   0.74970   0.75389   0.75587   0.76172
[...]
 2,-0.02117877,-0.00118867,0.00210469,-0.00106314,0.00017148,-0.0011048
 1,0.00086533,0.00060330,-0.00019553,0.00038960,-0.00024792,0.00001644,
 -0.00003376,-0.00003581,-0.00002159,-0.00000051,-0.00014733,-0.0038256
 9,-0.00137543,0.00000088,-0.00000154,-0.00000159,-0.00000542,-0.000001
 32,0.00000327,0.00000163,0.00000057,-0.00000132,0.00000593,0.00000307,
 -0.00000441,-0.00000232,-0.00000259,0.00000361,0.00000052,0.00000015,-
 0.00000054,-0.00000161,0.00000041,0.00000032,0.00000051,-0.00000023,-0
 .00000040,0.00000157,0.00000043,-0.00000031,-0.00000105,-0.00000024,0.
 00000061,0.00000655,0.00000031,-0.00000020,-0.00000459,0.00000024,0.00
 000257,-0.00000041,0.00000016,-0.00000001,0.00000011,0.00000003,0.0000
 0034,-0.00008972,-0.00002969,-0.00012396,0.00001853,-0.00003683,-0.000
 01474,0.00003099,-0.00002389,0.00001724,0.00005028,0.00000885,-0.00002
 174,0.00000024,-0.00000040,-0.00000018,-0.00000005,0.00000006,-0.00000
 002,0.00000035,0.00000012,-0.00000035,0.00000159,0.00000093,-0.0000014
 7,-0.00000008,0.00000005,-0.00000002,0.,-0.00000008,0.00000001,0.,0.,-
 0.00000006,-0.00000004,0.00000004,0.00000003,-0.00000058,-0.00000076,0
 .00000120,-0.00000140,-0.00000030,0.00000096,-0.00000026,0.,0.,0.00000
 014,-0.00000003,0.00000015,0.00000007,0.00000016,-0.00000016,-0.000000
 08,-0.00000007,-0.00000006,-0.00000009,0.00000017,-0.00000037,-0.00000
 004,-0.00000021,0.00000029,-0.00000016,-0.00000024,-0.00000016,-0.0000
 0004,0.00000016,-0.00000004,-0.00000102,-0.00000009,0.00000019,0.00000
 070,-0.00000014,0.00000061,0.00000033,0.00000076,-0.00000074,-0.000000
 39,-0.00000023,-0.00000018,-0.00000084,0.00000122,-0.00000346,-0.00000
 389,-0.00000229,0.00000363,-0.00000084,-0.00000045,-0.00000499,0.00000
 013,0.00000174,0.00000174,-0.00002657,0.00000311,0.00000679,0.00001087
 ,0.00000420,0.00001163,0.00000727,0.00000331,-0.00000534,-0.00000007,-
 0.00001129,-0.00000121,-0.01335703,0.09240320,-0.28533697,0.00070681,-
 0.00026986,-0.00082779,0.01411895,-0.09675632,0.31006232,0.00004354,-0
 .00001493,0.00017417,-0.00024235,-0.00013379,0.00006187,0.00010840,0.0
 0003948,0.00001191,0.00027415,0.00009583,-0.00010761,-0.00012770,-0.00
 008479,0.00006440,0.00002163,0.00001962,0.00000821,-0.00010586,0.00003
 468,-0.00003403,0.00003303,-0.00001325,0.00000531,0.00117127,-0.000034
 04,0.00060596,-0.00020898,0.00004018,-0.00060535,0.00008183,-0.0008129
 9,-0.00119680,-0.00017782,0.00012295,-0.00036946,-0.00198027,0.0013602
 0,0.00178843,-0.00107210,-0.00000417,-0.00010455,0.00042206,0.00017692
 ,-0.00000883,0.00005968,0.00084127,0.00043786,0.00003943,0.00024756,0.
 00009004,-0.00004234,-0.00000257,-0.00001677,0.00022044,-0.00023053,-0
 .00059587,0.00001173,-0.00000985,0.00000049,-0.00004535,-0.00000974,0.
 00001288,0.00001316,0.00000394,-0.00000173,0.00004760,0.00000994,-0.00
 001940,-0.00002313,-0.00000919,0.00001143,0.00000480,0.00000441,-0.000
 00076,-0.00002231,0.00000652,-0.00000741,0.00000678,-0.00000294,0.0000
 0146,0.00002376,-0.00000786,0.00001250,-0.00001105,0.00000763,-0.00000
 808,0.00010753,-0.00004432,0.00005353,-0.00004910,0.00003956,-0.000035
 05,-0.00000038,0.00000132,-0.00000392,-0.00000035,-0.00000071,0.000001
 75,0.00021708,0.00011958,0.00006455,-0.00004837,0.00002454,0.00000092,
 -0.00001013,-0.00000323,-0.00000441,0.00000648,-0.00004176,-0.00001272
 ,0.00000303,-0.00000282,0.00000045,-0.00000002,0.00000025,-0.00000102,
 0.00000289,0.00000073,-0.00000046,0.00001286,0.00000178,-0.00000481,-0
 .00000215,0.00000057,-0.00000006,0.00000036,0.00000012,-0.00000017,-0.
 00000018,-0.00000019,-0.00000026,-0.00000008,0.00000027,0.00000024,-0.
 00000575,-0.00000155,0.00000283,-0.00001126,-0.00000163,0.00000337,-0.
 00000121,-0.00000022,0.00000111,0.00000076,0.00000019,-0.00000001,-0.0
 0000038,0.00000138,-0.00000074,-0.00000034,-0.00000072,-0.00000012,-0.
 00000362,0.00000070,-0.00000177,0.00000155,-0.00000058,-0.00000004,0.0
 0000040,-0.00000322,0.00000103,-0.00000150,0.00000140,0.00000043,-0.00
 000624,-0.00000169,0.00000453,0.00000266,0.00000102,-0.00000022,-0.000
 00027,0.00000642,-0.00000167,-0.00000219,-0.00000285,-0.00000115,-0.00
 001959,0.00000947,-0.00001077,0.00001039,-0.00000189,-0.00000283,0.000
 00644,-0.00002209,0.00000800,-0.00001098,0.00000427,0.00000324,-0.0000
 7479,0.00002889,0.00003830,0.00001288,0.00000724,-0.00001229,0.0000005
 3,0.00003029,0.00000391,-0.00001145,-0.00002582,-0.00001953,-0.2319560
 8,-0.12087523,0.04329000,-0.01842480,-0.01525945,0.00544894,0.00217594
 ,0.00274786,-0.00105880,0.24955801,-0.00000484,0.00007764,0.00009028,-
 0.00028144,-0.00013169,0.00012127,0.00008315,0.00003114,-0.00001122,0.
 00022066,0.00011196,-0.00012408,-0.00010899,-0.00007832,0.00007193,0.0
 0001301,0.00000307,0.00000395,-0.00008542,0.00003436,-0.00002127,0.000
 02803,-0.00001104,0.00000176,0.00216866,-0.00264516,0.00121768,-0.0002
 3156,0.00163191,-0.00054581,-0.00348224,-0.00419977,-0.00462302,-0.000
 63592,-0.00004971,-0.00037058,-0.01759348,-0.01076385,0.00853028,-0.00
 323968,-0.00108528,0.00113163,0.00083441,0.00050332,-0.00047802,0.0010
 8707,0.00107953,0.00050265,0.00059938,-0.00061821,-0.00154361,-0.00004
 478,-0.00002569,-0.00002671,0.00009209,0.00093263,0.00005794,0.0000081
 4,-0.00000771,-0.00000109,-0.00003689,-0.00000932,0.00001162,0.0000109
 6,0.00000408,-0.00000215,0.00003854,0.00001134,-0.00001826,-0.00001831
 ,-0.00001051,0.00001166,0.00000461,0.00000399,-0.00000069,-0.00001811,
 0.00000395,-0.00000534,0.00000520,-0.00000188,0.00000087,0.00001943,-0
 .00000422,0.00000841,-0.00000939,0.00000408,-0.00000512,0.00008145,-0.
 00002914,0.00003677,-0.00003881,0.00002547,-0.00002168,-0.00000053,0.0
 0000105,-0.00000288,-0.00000016,-0.00000045,0.00000151,0.00062740,-0.0
 0001217,-0.00000174,-0.00011011,0.00006323,-0.00000511,-0.00008242,0.0
 0003199,0.00003515,0.00000408,-0.00007325,-0.00004103,0.00000226,-0.00
 000219,0.00000045,-0.00000007,0.00000027,-0.00000081,0.00000263,0.0000
 0102,-0.00000054,0.00001109,0.00000283,-0.00000524,-0.00000156,0.00000
 048,-0.00000008,0.00000025,0.00000004,0.00000001,-0.00000016,-0.000000
 18,-0.00000025,-0.00000002,0.00000029,0.00000016,-0.00000483,-0.000002
 60,0.00000336,-0.00000977,-0.00000221,0.00000324,-0.00000131,-0.000000
 20,0.00000084,0.00000069,0.00000020,0.00000002,-0.00000009,0.00000123,
 -0.00000060,-0.00000045,-0.00000062,-0.00000013,-0.00000235,0.00000050
 ,-0.00000166,0.00000110,-0.00000046,0.00000009,-0.00000022,-0.00000233
 ,0.00000078,-0.00000080,0.00000119,0.00000029,-0.00000548,-0.00000161,
 0.00000350,0.00000242,0.00000090,0.00000017,0.00000041,0.00000536,-0.0
 0000158,-0.00000219,-0.00000220,-0.00000096,-0.00001859,0.00000256,-0.
 00000885,0.00000084,-0.00000435,0.00000317,0.00000027,-0.00001150,-0.0
 0000511,-0.00000383,0.00000813,0.00000515,-0.00009844,0.00001474,0.000
 04544,0.00001254,0.00000946,-0.00001178,-0.00001302,0.00006447,0.00001
 312,-0.00002907,-0.00002608,-0.00003156,-0.11877456,-0.12350362,0.0267
 4012,0.01588886,0.01191196,-0.00433041,-0.00848533,-0.00610193,0.00082
 819,0.13162633,0.13284065,-0.00004790,0.00010453,0.00007424,-0.0001144
 6,-0.00006017,0.00007952,0.00003176,0.00000846,-0.00001064,0.00005631,
 0.00004246,-0.00005851,-0.00002880,-0.00002236,0.00003431,-0.00000397,
 -0.00000991,0.00000166,-0.00000989,0.00001292,0.00000078,0.00000505,-0
 .00000303,-0.00000235,0.00057083,-0.00091159,0.00050202,-0.00010608,0.
 00052608,-0.00043093,-0.00135898,-0.00463665,-0.00146317,-0.00076454,-
 0.00048964,-0.00068049,-0.01773260,-0.00892940,0.00496353,0.00005002,0
 .00050750,0.00030394,-0.00000229,-0.00003436,0.00019075,-0.00019246,-0
 .00038757,-0.00025434,0.00055596,-0.00061987,-0.00029838,-0.00002943,-
 0.00004616,0.00000419,-0.00015677,0.00091578,0.00055019,-0.00000052,0.
 00000017,-0.00000240,0.00000021,0.00000028,0.00000064,-0.00000019,-0.0
 0000032,-0.00000006,-0.00000098,0.00000008,-0.00000038,0.00000073,0.00
 000019,0.00000047,-0.00000055,-0.00000066,0.00000012,0.00000162,0.0000
 0011,0.00000055,-0.00000034,0.00000007,-0.00000023,-0.00000201,0.00000
 018,-0.00000069,0.00000103,-0.00000022,0.00000042,0.00000311,-0.000005
 59,0.00000425,-0.00000105,0.00000463,-0.00000132,-0.00000014,-0.000000
 10,0.00000005,0.,0.00000006,-0.00000004,0.00018086,0.00007832,-0.00000
 402,-0.00005095,0.00002986,-0.00000222,-0.00003227,-0.00000169,-0.0000
 0424,-0.00006437,0.00002109,0.00001025,-0.00000034,0.00000030,-0.00000
 019,0.,-0.00000004,0.00000011,-0.00000033,-0.00000014,0.00000009,-0.00
 000156,-0.00000030,0.00000062,0.00000023,-0.00000009,0.00000004,-0.000
 00003,0.,0.,0.,0.00000003,0.00000004,-0.00000002,-0.00000004,-0.000000
 03,0.00000070,0.00000030,-0.00000038,0.00000129,0.00000024,-0.00000038
 ,0.00000016,0.,-0.00000005,-0.00000007,-0.00000003,0.,0.00000004,-0.00
 000013,0.00000003,0.00000002,0.00000008,0.,0.,0.,-0.00000007,-0.000000
 21,0.,0.00000010,0.00000012,0.00000010,-0.00000019,0.,-0.00000003,0.00
 000009,0.00000016,-0.00000049,0.00000060,0.00000014,-0.00000004,0.0000
 0025,0.00000021,0.00000027,-0.00000045,-0.00000019,0.00000011,-0.00000
 012,-0.00000594,-0.00000008,-0.00000475,-0.00000483,-0.00000180,0.0000
 0384,0.00000056,-0.00000057,-0.00000614,-0.00000013,0.00000310,0.00000
 404,-0.00003987,-0.00000019,0.00002938,0.00000065,0.00000709,-0.000005
 60,-0.00001007,0.00003649,0.00000539,-0.00001688,-0.00000724,-0.000017
 14,0.04424740,0.02784109,-0.05839802,-0.00260164,-0.00167546,-0.000712
 77,0.02564616,0.01494666,-0.00351488,-0.04797214,-0.02724314,0.0591063
 7,0.00034902,0.00007219,0.00024475,-0.00100944,0.00045145,0.00183776,-
 0.00109503,-0.00002827,-0.00041834,0.00384565,0.00321431,-0.02502969,-
 0.00252531,0.00427135,0.00086019,-0.04969279,0.00394079,-0.01377263,-0
 .00937949,-0.01442619,0.03014406,-0.00413319,0.00051231,0.00200565,0.0
 0011641,0.00015662,-0.00004713,-0.00000052,-0.00015487,0.00011664,0.00
 001394,-0.00004259,0.00002380,0.00002132,0.00000226,-0.00000593,0.0000
 1390,0.00000811,-0.00000839,0.00001401,0.00001729,-0.00000854,-0.00000
 826,-0.00001674,0.00000863,-0.00001170,-0.00000471,0.00000637,-0.00000
 037,0.00000088,-0.00000213,0.00004658,0.00003214,-0.00003904,-0.000005
 87,-0.00000227,0.00000228,0.00032305,-0.00065726,-0.00054992,-0.000081
 77,0.00016238,-0.00016357,-0.00016531,-0.00008107,0.00001173,0.0000712
 8,0.00003870,-0.00002563,-0.00002670,-0.00000010,-0.00000984,0.0000017
 6,0.00000571,0.00001257,-0.00003127,0.00002035,-0.00001450,0.00001469,
 -0.00000631,0.00000268,0.00003119,-0.00001568,0.00002327,-0.00001219,0
 .00001466,-0.00001508,0.00363524,-0.00528459,0.00497714,0.00048128,0.0
 0332275,-0.00244000,0.00004773,0.00016478,-0.00023558,-0.00000565,-0.0
 0000134,0.00000188,0.00000186,-0.00000181,-0.00000035,0.00000104,0.000
 00014,-0.00000026,-0.00000083,0.00000079,0.00000048,-0.00000071,0.0000
 0028,-0.00000052,0.00000260,-0.00000238,-0.00000077,0.00000032,0.00000
 015,-0.00000126,0.00000233,0.00000048,0.00000008,0.00001087,0.00000151
 ,-0.00000408,-0.00000186,0.00000033,0.00000011,0.00000026,0.00000017,-
 0.00000019,-0.00000026,-0.00000007,-0.00000018,-0.00000018,0.00000023,
 0.00000012,-0.00000486,-0.00000106,0.00000225,-0.00001056,-0.00000139,
 0.00000229,-0.00000057,-0.00000079,0.00000177,0.00000043,0.00000028,-0
 .00000025,-0.00000025,0.00000169,-0.00000075,-0.00000059,-0.00000052,-
 0.00000032,-0.00001844,-0.00000112,-0.00000519,0.00000455,-0.00000085,
 -0.00000132,0.00000226,-0.00000235,0.00000211,-0.00000142,0.00000580,0
 .00000152,-0.00017670,-0.00002194,0.00008951,-0.00002570,-0.00000453,-
 0.00003620,0.00000040,0.00007124,0.00003886,-0.00000523,-0.00007517,-0
 .00005097,0.00127963,0.00038614,-0.00236077,0.00072877,-0.00042604,-0.
 00012897,0.00023720,0.00004088,-0.00020078,-0.00002334,-0.00027724,0.0
 0056791,-0.00010596,-0.00000422,-0.00004123,-0.00003514,-0.00001989,0.
 00003966,-0.00003927,0.00004309,0.00002501,0.00001440,-0.00006998,-0.0
 0007878,-0.00000299,-0.00000160,0.00000174,0.00000137,0.00000178,-0.00
 000383,0.00000289,-0.00000065,0.00000195,-0.00000258,-0.00000075,0.000
 00043,0.05732409,-0.00006774,-0.00044330,-0.00058657,-0.00070347,0.000
 57525,-0.00136859,0.00025087,0.00051172,0.00023602,-0.00112720,-0.0054
 8458,0.02076492,0.00277094,-0.00311717,-0.00098324,0.00224482,-0.05719
 120,0.05987057,-0.00600725,-0.00851143,0.01713475,-0.00198267,-0.00021
 937,0.00191665,-0.00000048,0.00008759,-0.00007881,-0.00001480,-0.00003
 981,0.00002003,-0.00005274,-0.00003305,0.00001979,0.00001440,-0.000010
 29,0.00000538,0.00000680,0.00001753,-0.00000482,0.00002511,-0.00000295
 ,-0.00000658,-0.00001553,-0.00000004,0.00000123,-0.00002049,0.00000195
 ,0.00000395,0.00000228,0.00000186,-0.00000183,-0.00017893,0.00000624,0
 .00000680,-0.00000160,0.00000020,0.00000244,-0.00007286,-0.00024942,0.
 00026083,-0.00016050,-0.00009836,0.00000256,0.00010942,0.00007165,-0.0
 0002419,0.00020788,0.00007417,-0.00009405,-0.00009999,-0.00007722,0.00
 006188,0.00001714,0.00001670,0.00000423,-0.00006916,0.00001811,-0.0000
 2183,0.00002165,-0.00000731,0.00000333,0.00006743,-0.00001687,0.000034
 01,-0.00003170,0.00001510,-0.00002040,0.00210146,-0.00037722,0.0009275
 8,-0.00036211,0.00027318,-0.00067271,-0.00003136,-0.00000358,-0.000131
 33,-0.00000171,0.00000149,0.00000791,0.00000529,-0.00000543,0.00000179
 ,0.00000131,0.00000030,-0.00000017,-0.00000132,0.00000135,0.00000099,-
 0.00000190,0.00000005,-0.00000106,0.00000513,-0.00000459,-0.00000004,-
 0.00000029,0.00000025,-0.00000269,0.00000807,0.00000338,-0.00000127,0.
 00002855,0.00000881,-0.00001503,-0.00000383,0.00000095,0.00000011,0.00
 000069,0.00000012,0.00000009,-0.00000065,-0.00000032,-0.00000045,-0.00
 000033,0.00000070,0.00000025,-0.00001219,-0.00000792,0.00000968,-0.000
 02691,-0.00000846,0.00000882,-0.00000474,-0.00000111,0.00000348,0.0000
 0125,0.00000115,-0.00000062,0.00000043,0.00000412,-0.00000087,-0.00000
 178,-0.00000208,-0.00000081,-0.00000917,0.00000580,-0.00001184,0.00000
 065,-0.00000518,0.00000260,-0.00000009,-0.00001077,-0.00000170,-0.0000
 0384,0.00000573,0.00000307,0.00000084,0.00004514,0.00006986,-0.0000584
 6,0.00000167,-0.00006377,0.00000747,0.00002703,0.00005656,0.00000290,-
 0.00002973,-0.00004443,-0.00140792,0.00444743,-0.02985611,-0.00028547,
 -0.00490762,-0.00336973,-0.00030472,0.00104931,0.00079116,0.00038921,0
 .00109719,0.00038116,0.00010495,-0.00003322,0.00006387,0.00005857,0.00
 002860,-0.00002677,0.00000526,-0.00003025,-0.00004379,-0.00000508,0.00
 002557,0.00008605,-0.00000383,-0.00000170,0.00000126,0.00000275,0.0000
 0456,-0.00000419,0.00000365,-0.00000218,0.00000040,-0.00000471,-0.0000
 0158,0.00000044,0.00467236,0.07250337,-0.00051733,0.00029104,0.0004888
 0,0.00077278,-0.00025991,0.00108155,-0.00092409,-0.00035140,-0.0004711
 7,0.00096625,0.00150173,-0.00365622,-0.00087109,-0.00086769,0.00043794
 ,-0.00657008,0.06068982,-0.29493451,0.00632928,0.00623506,-0.00318441,
 0.00092359,-0.00123058,-0.00107034,-0.00023456,0.00006955,-0.00009654,
 0.00017711,-0.00005519,0.00007458,0.00018550,-0.00002223,0.00005587,-0
 .00002557,0.00002149,-0.00001773,-0.00004914,-0.00005075,0.00000748,-0
 .00006358,0.00001477,0.00001360,0.00004468,-0.00000685,0.00000201,0.00
 004973,-0.00000515,-0.00000586,-0.00000623,-0.00000366,0.00000023,0.00
 022293,-0.00013737,0.00005628,0.00000135,0.00000815,-0.00000225,0.0001
 6421,-0.00011781,-0.00031563,0.00009647,0.00004893,-0.00001024,-0.0000
 2645,-0.00004272,-0.00000046,-0.00011581,-0.00005163,0.00005249,0.0000
 5907,0.00003122,-0.00002406,-0.00001020,-0.00001155,-0.00000544,0.0000
 5134,-0.00001414,0.00001984,-0.00001569,0.00000482,-0.00000419,-0.0000
 5182,0.00001724,-0.00002855,0.00002294,-0.00001546,0.00001968,-0.00269
 843,0.00254396,-0.00051252,-0.00019960,-0.00176218,0.00074868,0.000041
 53,0.00000911,0.00006569,0.00000212,0.00000185,-0.00000345,-0.00001398
 ,0.00001235,-0.00000400,-0.00000344,-0.00000101,0.00000035,0.00000381,
 -0.00000242,-0.00000184,0.00000547,0.00000004,0.00000158,-0.00000458,0
 .00000366,-0.00000133,-0.00000007,-0.00000044,0.00000221,-0.00000568,-
 0.00000204,0.00000017,-0.00002195,-0.00000455,0.00000898,0.00000349,-0
 .00000081,-0.00000013,-0.00000060,-0.00000030,0.00000008,0.00000050,0.
 00000030,0.00000036,0.00000011,-0.00000053,-0.00000025,0.00000983,0.00
 000434,-0.00000497,0.00002021,0.00000518,-0.00000543,0.00000297,0.0000
 0075,-0.00000240,-0.00000108,-0.00000067,0.00000058,0.00000011,-0.0000
 0304,0.00000082,0.00000117,0.00000141,0.00000039,0.00001018,-0.0000015
 6,0.00000403,-0.00000465,0.00000068,0.00000148,-0.00000222,0.00000823,
 -0.00000401,0.00000376,-0.00000324,-0.00000136,-0.00003692,-0.00004215
 ,-0.00001739,-0.00000411,-0.00000456,0.00001437,0.00000408,-0.00003674
 ,-0.00000961,0.00001453,-0.00001009,0.00000069,-0.00178116,0.00172057,
 -0.01868339,-0.00041398,-0.00331939,-0.00038690,-0.00051812,0.00002097
 ,0.00041551,0.00034890,0.00048898,0.00063499,0.00000680,0.00003923,-0.
 00003182,-0.00002094,-0.00000226,0.00000104,0.00001339,-0.00002354,0.0
 0000725,-0.00001211,-0.00000532,-0.00001390,0.00001450,0.00000614,-0.0
 0000419,-0.00000527,-0.00000821,-0.00000999,0.00000054,-0.00000483,0.0
 0000293,0.00000759,0.00000860,0.00000273,0.00464773,-0.06532619,0.3193
 0124\\0.00000138,0.00001100,0.00000496,0.00000835,-0.00001407,-0.00001
 884,0.00000130,-0.00000127,0.00000367,-0.00000274,-0.00000161,0.000015
 58,0.00000363,0.00000042,-0.00000335,-0.00000003,-0.00001028,-0.000006
 81,0.00001096,0.00000868,0.00001229,0.00000063,-0.00000045,-0.00000490
 ,-0.00000711,0.00000689,-0.00000013,0.00000682,-0.00000249,-0.00000242
 ,0.00001520,0.00000638,0.00001502,-0.00000081,0.00000071,-0.00000346,-
 0.00000089,-0.00000590,-0.00000945,-0.00000257,-0.00000579,0.00000648,
 0.00000468,0.00000194,-0.00000887,0.00000233,0.00000139,0.00001057,-0.
 00000023,0.00000070,-0.00000015,-0.00000571,-0.00000460,-0.00000030,-0
 .00000333,0.00000657,-0.00000168,0.00000034,0.00001007,0.00000011,0.00
 001112,-0.00001411,-0.00001414,0.00000110,-0.00000069,0.00000387,-0.00
 000460,-0.00000811,0.00000698,0.00000507,0.00000333,0.00000037,-0.0000
 0279,-0.00000968,-0.00000075,0.00001199,0.00001233,0.00001277,0.000001
 34,-0.00000066,-0.00000431,-0.00000298,0.00000928,-0.00000457,0.000003
 64,-0.00000433,-0.00000081,-0.00000913,0.00001691,0.00001133,0.0000068
 0,-0.00000644,-0.00000802,-0.00000502,-0.00000517,-0.00000121,-0.00000
 382,0.00000518,-0.00000041,-0.00000478,-0.00000070,-0.00000266,-0.0000
 0018,-0.00000121,0.00000383,-0.00000241,-0.00000357,-0.00000084,-0.000
 00253,0.00000391,-0.00000363,-0.00000127,0.00000844,0.00000070,-0.0000
 0191,-0.00000577,0.00000012,0.00000308,0.00000505,0.00000627,-0.000019
 26,-0.00008442,-0.00007443,0.00000532,0.00001968,0.00002106,-0.0000002
 3,0.00000309,0.00000064,0.00000942,-0.00000298,0.00000701,-0.00000553,
 0.00000756,-0.00000111,0.00000630,0.00003144,0.00002966,0.00001256,0.0
 0000888,0.00000826,-0.00000561,0.00000525,-0.00000436,-0.00000058,0.00
 000245,0.00000332,-0.00000057,0.00000098,0.00000138,-0.00000123,-0.000
 00409,0.00000037,-0.00000289,-0.00000534,0.00000334,-0.00000109,-0.000
 00192,-0.00000275,-0.00000116,0.00000015,-0.00000132,-0.00000108,0.000
 00467,-0.00000028,-0.00000354,0.00000494,-0.00000567,-0.00000141,0.000
 00138,0.00000269,-0.00000064,0.00000092,0.00000219,-0.00000135,-0.0000
 0490,-0.00000027,-0.00000208,-0.00000503,0.00000192,-0.00000091,-0.000
 00127,-0.00000092,-0.00000161,-0.00000078,-0.00000091,-0.00000103,0.00
 000271,0.00000027,-0.00000374,0.00000475,-0.00000396,-0.00000117,0.000
 00099,0.00000152,-0.00000127,0.00000117,0.00000188,-0.00000118,-0.0000
 0353,-0.00000077,-0.00000192,-0.00000707,0.00000268,-0.00000113,0.0000
 0409,0.00000037,-0.00000096,-0.00000094,-0.00000252,-0.00000184,-0.000
 00017,-0.00000150,-0.00000349,0.00000508,-0.00000101\\\@


 I SUPPOSE A BABY LLAMA HAS A MMAMA AND A PPOPA.
     -- RICHARD AMOUR
 Job cpu time:       0 days 23 hours 38 minutes 36.9 seconds.
 Elapsed time:       0 days  0 hours 59 minutes 10.0 seconds.
 File lengths (MBytes):  RWF=   4542 Int=      0 D2E=      0 Chk=     60 Scr=      1
 Normal termination of Gaussian 16 at Mon Feb  7 17:24:03 2022.
