 Entering Gaussian System, Link 0=g16
 Input=input.com
 Output=input.log
 Initial command:
 /share/apps/g16.b01_avx2/g16/l1.exe "/scratch/Gau-948233.inp" -scrdir="/scratch/"
 Entering Link 1 = /share/apps/g16.b01_avx2/g16/l1.exe PID=    948235.
  
 Copyright (c) 1988-2017, Gaussian, Inc.  All Rights Reserved.
  
 This is part of the Gaussian(R) 16 program.  It is based on
 the Gaussian(R) 09 system (copyright 2009, Gaussian, Inc.),
 the Gaussian(R) 03 system (copyright 2003, Gaussian, Inc.),
 the Gaussian(R) 98 system (copyright 1998, Gaussian, Inc.),
 the Gaussian(R) 94 system (copyright 1995, Gaussian, Inc.),
 the Gaussian 92(TM) system (copyright 1992, Gaussian, Inc.),
 the Gaussian 90(TM) system (copyright 1990, Gaussian, Inc.),
 the Gaussian 88(TM) system (copyright 1988, Gaussian, Inc.),
 the Gaussian 86(TM) system (copyright 1986, Carnegie Mellon
 University), and the Gaussian 82(TM) system (copyright 1983,
 Carnegie Mellon University). Gaussian is a federally registered
 trademark of Gaussian, Inc.
  
 This software contains proprietary and confidential information,
 including trade secrets, belonging to Gaussian, Inc.
  
 This software is provided under written license and may be
 used, copied, transmitted, or stored only in accord with that
 written license.
  
 The following legend is applicable only to US Government
 contracts under FAR:
  
                    RESTRICTED RIGHTS LEGEND
  
 Use, reproduction and disclosure by the US Government is
 subject to restrictions as set forth in subparagraphs (a)
 and (c) of the Commercial Computer Software - Restricted
 Rights clause in FAR 52.227-19.
  
 Gaussian, Inc.
 340 Quinnipiac St., Bldg. 40, Wallingford CT 06492
  
  
 ---------------------------------------------------------------
 Warning -- This program may not be used in any manner that
 competes with the business of Gaussian, Inc. or will provide
 assistance to any competitor of Gaussian, Inc.  The licensee
 of this program is prohibited from giving any competitor of
 Gaussian, Inc. access to this program.  By using this program,
 the user acknowledges that Gaussian, Inc. is engaged in the
 business of creating and licensing software in the field of
 computational chemistry and represents and warrants to the
 licensee that it is not a competitor of Gaussian, Inc. and that
 it will not use this program in any manner prohibited above.
 ---------------------------------------------------------------
  

 Cite this work as:
 Gaussian 16, Revision B.01,
 M. J. Frisch, G. W. Trucks, H. B. Schlegel, G. E. Scuseria, 
 M. A. Robb, J. R. Cheeseman, G. Scalmani, V. Barone, 
 G. A. Petersson, H. Nakatsuji, X. Li, M. Caricato, A. V. Marenich, 
 J. Bloino, B. G. Janesko, R. Gomperts, B. Mennucci, H. P. Hratchian, 
 J. V. Ortiz, A. F. Izmaylov, J. L. Sonnenberg, D. Williams-Young, 
 F. Ding, F. Lipparini, F. Egidi, J. Goings, B. Peng, A. Petrone, 
 T. Henderson, D. Ranasinghe, V. G. Zakrzewski, J. Gao, N. Rega, 
 G. Zheng, W. Liang, M. Hada, M. Ehara, K. Toyota, R. Fukuda, 
 J. Hasegawa, M. Ishida, T. Nakajima, Y. Honda, O. Kitao, H. Nakai, 
 T. Vreven, K. Throssell, J. A. Montgomery, Jr., J. E. Peralta, 
 F. Ogliaro, M. J. Bearpark, J. J. Heyd, E. N. Brothers, K. N. Kudin, 
 V. N. Staroverov, T. A. Keith, R. Kobayashi, J. Normand, 
 K. Raghavachari, A. P. Rendell, J. C. Burant, S. S. Iyengar, 
 J. Tomasi, M. Cossi, J. M. Millam, M. Klene, C. Adamo, R. Cammi, 
 J. W. Ochterski, R. L. Martin, K. Morokuma, O. Farkas, 
 J. B. Foresman, and D. J. Fox, Gaussian, Inc., Wallingford CT, 2016.
 
 ******************************************
 Gaussian 16:  ES64L-G16RevB.01 20-Dec-2017
                14-Feb-2022 
 ******************************************
 %nproc=24
 Will use up to   24 processors via shared memory.
 %mem=64GB
 ----------------------------------------------------------------------
 #P PBE1PBE/6-31+G(d,p) opt int=(grid=99590) freq EmpiricalDispersion=G
 D3
 ----------------------------------------------------------------------
 1/18=20,19=15,26=5,38=1/1,3;
 2/9=110,12=2,17=6,18=5,40=1/2;
 3/5=1,6=6,7=111,11=2,25=1,30=1,71=1,74=-13,75=99590,124=31/1,2,3;
 4//1;
 5/5=2,38=5/2;
 6/7=2,8=2,9=2,10=2,28=1/1;
 7//1,2,3,16;
 1/18=20,19=15,26=5/3(2);
 2/9=110/2;
 99//99;
 2/9=110/2;
 3/5=1,6=6,7=111,11=2,25=1,30=1,71=1,74=-13,75=99590,124=31/1,2,3;
 4/5=5,16=3,69=1/1;
 5/5=2,38=5/2;
 7//1,2,3,16;
 1/18=20,19=15,26=5/3(-5);
 2/9=110/2;
 6/7=2,8=2,9=2,10=2,19=2,28=1/1;
 99/9=1/99;
 Leave Link    1 at Mon Feb 14 17:54:59 2022, MaxMem=  8589934592 cpu:               0.5 elap:               0.0
 (Enter /share/apps/g16.b01_avx2/g16/l101.exe)
 -------
 solv sp
 -------
 Symbolic Z-matrix:
 Charge =  0 Multiplicity = 1
 N                     5.35545  -1.40124  -0.57811 
 H                     5.22192  -0.42727  -0.30687 
 C                     3.13414  -1.65503   0.36562 
 C                     4.3263   -2.2599   -0.39179 
 O                     4.31131  -3.44426  -0.74596 
 N                     1.95264  -2.42471   0.00313 
 H                     2.13701  -3.38717  -0.26783 
 C                     0.72071  -1.89297  -0.08675 
 O                     0.47596  -0.69717   0.15553 
 C                    -0.39167  -2.85734  -0.52826 
 N                    -1.65219  -2.27279  -0.10945 
 H                    -1.62808  -1.26947   0.04006 
 C                    -2.74286  -3.02399   0.21106 
 O                    -2.76214  -4.25089   0.12853 
 H                     2.98844  -0.61916   0.0577 
 H                    -0.27376  -3.81898  -0.0161 
 C                    -3.9508   -2.24275   0.75332 
 C                     3.39336  -1.69416   1.88427 
 H                     3.60579  -2.717     2.21374 
 H                     4.24551  -1.05662   2.13922 
 H                     2.51219  -1.32826   2.4199 
 C                    -0.3385   -3.09478  -2.0518 
 H                    -0.45018  -2.14737  -2.58948 
 H                     0.60781  -3.55998  -2.34936 
 H                    -1.15651  -3.76245  -2.33671 
 C                     1.91257   2.15929   0.81525 
 N                     3.07812   3.00471   0.58978 
 H                     2.89595   4.00289   0.60475 
 C                     4.30747   2.52203   0.30036 
 O                     4.55012   1.30683   0.22686 
 C                     5.39488   3.5558    0.06615 
 C                     0.68876   2.94922   0.33413 
 O                     0.65517   4.18207   0.4291 
 N                    -0.32903   2.20346  -0.15723 
 H                    -0.21507   1.19433  -0.25984 
 C                    -1.5622    2.83202  -0.61933 
 C                    -2.60976   1.73877  -0.83262 
 O                    -2.3251    0.69831  -1.44214 
 N                    -3.85809   2.00532  -0.37629 
 H                    -4.00624   2.8334    0.18659 
 H                     2.02315   1.24477   0.23149 
 H                    -1.89059   3.54361   0.14846 
 C                    -5.0278    1.16374  -0.67289 
 C                     1.74736   1.78634   2.301 
 H                     1.57255   2.68216   2.90648 
 H                     0.9052    1.09881   2.42607 
 H                     2.65491   1.2903    2.65727 
 C                    -1.3708    3.59286  -1.94846 
 H                    -0.60745   4.36279  -1.81548 
 H                    -1.05912   2.89859  -2.7344 
 H                    -2.30569   4.07577  -2.25526 
 H                     5.03909   4.58676   0.14995 
 C                    -5.09893  -0.07759   0.26481 
 O                    -5.98855  -0.2099    1.1024 
 N                    -4.10183  -0.9729    0.03807 
 H                    -3.45972  -0.74438  -0.71885 
 H                     6.19696   3.39212   0.79278 
 H                     5.81625   3.40026  -0.93194 
 C                     6.59873  -1.80075  -1.2156 
 H                     6.56915  -2.87988  -1.37859 
 H                     6.72681  -1.30097  -2.18402 
 H                     7.45663  -1.55574  -0.57839 
 C                    -3.7856   -2.0573    2.27499 
 H                    -4.67415  -1.57539   2.68753 
 H                    -3.65567  -3.03613   2.74761 
 H                    -2.90837  -1.43959   2.49811 
 H                    -4.82637  -2.87413   0.56868 
 H                    -4.88975   0.79623  -1.69697 
 C                    -6.30178   1.9962   -0.57586 
 H                    -6.25788   2.84533  -1.26636 
 H                    -7.16989   1.38157  -0.82553 
 H                    -6.4522    2.35929   0.44618 
 
 ITRead=  0  0  0  0  0  0  0  0  0  0  0  0  0  0  0  0  0  0  0  0
 ITRead=  0  0  0  0  0  0  0  0  0  0  0  0  0  0  0  0  0  0  0  0
 ITRead=  0  0  0  0  0  0  0  0  0  0  0  0  0  0  0  0  0  0  0  0
 ITRead=  0  0  0  0  0  0  0  0  0  0  0  0
 MicOpt= -1 -1 -1 -1 -1 -1 -1 -1 -1 -1 -1 -1 -1 -1 -1 -1 -1 -1 -1 -1
 MicOpt= -1 -1 -1 -1 -1 -1 -1 -1 -1 -1 -1 -1 -1 -1 -1 -1 -1 -1 -1 -1
 MicOpt= -1 -1 -1 -1 -1 -1 -1 -1 -1 -1 -1 -1 -1 -1 -1 -1 -1 -1 -1 -1
 MicOpt= -1 -1 -1 -1 -1 -1 -1 -1 -1 -1 -1 -1
 NAtoms=     72 NQM=       72 NQMF=       0 NMMI=      0 NMMIF=      0
                NMic=       0 NMicF=      0.
                    Isotopes and Nuclear Properties:
 (Nuclear quadrupole moments (NQMom) in fm**2, nuclear magnetic moments (NMagM)
  in nuclear magnetons)

  Atom         1           2           3           4           5           6           7           8           9          10
 IAtWgt=          14           1          12          12          16          14           1          12          16          12
 AtmWgt=  14.0030740   1.0078250  12.0000000  12.0000000  15.9949146  14.0030740   1.0078250  12.0000000  15.9949146  12.0000000
 NucSpn=           2           1           0           0           0           2           1           0           0           0
 AtZEff=  -0.0000000  -0.0000000  -0.0000000  -0.0000000  -0.0000000  -0.0000000  -0.0000000  -0.0000000  -0.0000000  -0.0000000
 NQMom=    2.0440000   0.0000000   0.0000000   0.0000000   0.0000000   2.0440000   0.0000000   0.0000000   0.0000000   0.0000000
 NMagM=    0.4037610   2.7928460   0.0000000   0.0000000   0.0000000   0.4037610   2.7928460   0.0000000   0.0000000   0.0000000
 AtZNuc=   7.0000000   1.0000000   6.0000000   6.0000000   8.0000000   7.0000000   1.0000000   6.0000000   8.0000000   6.0000000

  Atom        11          12          13          14          15          16          17          18          19          20
 IAtWgt=          14           1          12          16           1           1          12          12           1           1
 AtmWgt=  14.0030740   1.0078250  12.0000000  15.9949146   1.0078250   1.0078250  12.0000000  12.0000000   1.0078250   1.0078250
 NucSpn=           2           1           0           0           1           1           0           0           1           1
 AtZEff=  -0.0000000  -0.0000000  -0.0000000  -0.0000000  -0.0000000  -0.0000000  -0.0000000  -0.0000000  -0.0000000  -0.0000000
 NQMom=    2.0440000   0.0000000   0.0000000   0.0000000   0.0000000   0.0000000   0.0000000   0.0000000   0.0000000   0.0000000
 NMagM=    0.4037610   2.7928460   0.0000000   0.0000000   2.7928460   2.7928460   0.0000000   0.0000000   2.7928460   2.7928460
 AtZNuc=   7.0000000   1.0000000   6.0000000   8.0000000   1.0000000   1.0000000   6.0000000   6.0000000   1.0000000   1.0000000

  Atom        21          22          23          24          25          26          27          28          29          30
 IAtWgt=           1          12           1           1           1          12          14           1          12          16
 AtmWgt=   1.0078250  12.0000000   1.0078250   1.0078250   1.0078250  12.0000000  14.0030740   1.0078250  12.0000000  15.9949146
 NucSpn=           1           0           1           1           1           0           2           1           0           0
 AtZEff=  -0.0000000  -0.0000000  -0.0000000  -0.0000000  -0.0000000  -0.0000000  -0.0000000  -0.0000000  -0.0000000  -0.0000000
 NQMom=    0.0000000   0.0000000   0.0000000   0.0000000   0.0000000   0.0000000   2.0440000   0.0000000   0.0000000   0.0000000
 NMagM=    2.7928460   0.0000000   2.7928460   2.7928460   2.7928460   0.0000000   0.4037610   2.7928460   0.0000000   0.0000000
 AtZNuc=   1.0000000   6.0000000   1.0000000   1.0000000   1.0000000   6.0000000   7.0000000   1.0000000   6.0000000   8.0000000

  Atom        31          32          33          34          35          36          37          38          39          40
 IAtWgt=          12          12          16          14           1          12          12          16          14           1
 AtmWgt=  12.0000000  12.0000000  15.9949146  14.0030740   1.0078250  12.0000000  12.0000000  15.9949146  14.0030740   1.0078250
 NucSpn=           0           0           0           2           1           0           0           0           2           1
 AtZEff=  -0.0000000  -0.0000000  -0.0000000  -0.0000000  -0.0000000  -0.0000000  -0.0000000  -0.0000000  -0.0000000  -0.0000000
 NQMom=    0.0000000   0.0000000   0.0000000   2.0440000   0.0000000   0.0000000   0.0000000   0.0000000   2.0440000   0.0000000
 NMagM=    0.0000000   0.0000000   0.0000000   0.4037610   2.7928460   0.0000000   0.0000000   0.0000000   0.4037610   2.7928460
 AtZNuc=   6.0000000   6.0000000   8.0000000   7.0000000   1.0000000   6.0000000   6.0000000   8.0000000   7.0000000   1.0000000

  Atom        41          42          43          44          45          46          47          48          49          50
 IAtWgt=           1           1          12          12           1           1           1          12           1           1
 AtmWgt=   1.0078250   1.0078250  12.0000000  12.0000000   1.0078250   1.0078250   1.0078250  12.0000000   1.0078250   1.0078250
 NucSpn=           1           1           0           0           1           1           1           0           1           1
 AtZEff=  -0.0000000  -0.0000000  -0.0000000  -0.0000000  -0.0000000  -0.0000000  -0.0000000  -0.0000000  -0.0000000  -0.0000000
 NQMom=    0.0000000   0.0000000   0.0000000   0.0000000   0.0000000   0.0000000   0.0000000   0.0000000   0.0000000   0.0000000
 NMagM=    2.7928460   2.7928460   0.0000000   0.0000000   2.7928460   2.7928460   2.7928460   0.0000000   2.7928460   2.7928460
 AtZNuc=   1.0000000   1.0000000   6.0000000   6.0000000   1.0000000   1.0000000   1.0000000   6.0000000   1.0000000   1.0000000

  Atom        51          52          53          54          55          56          57          58          59          60
 IAtWgt=           1           1          12          16          14           1           1           1          12           1
 AtmWgt=   1.0078250   1.0078250  12.0000000  15.9949146  14.0030740   1.0078250   1.0078250   1.0078250  12.0000000   1.0078250
 NucSpn=           1           1           0           0           2           1           1           1           0           1
 AtZEff=  -0.0000000  -0.0000000  -0.0000000  -0.0000000  -0.0000000  -0.0000000  -0.0000000  -0.0000000  -0.0000000  -0.0000000
 NQMom=    0.0000000   0.0000000   0.0000000   0.0000000   2.0440000   0.0000000   0.0000000   0.0000000   0.0000000   0.0000000
 NMagM=    2.7928460   2.7928460   0.0000000   0.0000000   0.4037610   2.7928460   2.7928460   2.7928460   0.0000000   2.7928460
 AtZNuc=   1.0000000   1.0000000   6.0000000   8.0000000   7.0000000   1.0000000   1.0000000   1.0000000   6.0000000   1.0000000

  Atom        61          62          63          64          65          66          67          68          69          70
 IAtWgt=           1           1          12           1           1           1           1           1          12           1
 AtmWgt=   1.0078250   1.0078250  12.0000000   1.0078250   1.0078250   1.0078250   1.0078250   1.0078250  12.0000000   1.0078250
 NucSpn=           1           1           0           1           1           1           1           1           0           1
 AtZEff=  -0.0000000  -0.0000000  -0.0000000  -0.0000000  -0.0000000  -0.0000000  -0.0000000  -0.0000000  -0.0000000  -0.0000000
 NQMom=    0.0000000   0.0000000   0.0000000   0.0000000   0.0000000   0.0000000   0.0000000   0.0000000   0.0000000   0.0000000
 NMagM=    2.7928460   2.7928460   0.0000000   2.7928460   2.7928460   2.7928460   2.7928460   2.7928460   0.0000000   2.7928460
 AtZNuc=   1.0000000   1.0000000   6.0000000   1.0000000   1.0000000   1.0000000   1.0000000   1.0000000   6.0000000   1.0000000

  Atom        71          72
 IAtWgt=           1           1
 AtmWgt=   1.0078250   1.0078250
 NucSpn=           1           1
 AtZEff=  -0.0000000  -0.0000000
 NQMom=    0.0000000   0.0000000
 NMagM=    2.7928460   2.7928460
 AtZNuc=   1.0000000   1.0000000
 Leave Link  101 at Mon Feb 14 17:55:00 2022, MaxMem=  8589934592 cpu:               6.4 elap:               0.3
 (Enter /share/apps/g16.b01_avx2/g16/l103.exe)

 GradGradGradGradGradGradGradGradGradGradGradGradGradGradGradGradGradGrad
 Berny optimization.
 Initialization pass.
                           ----------------------------
                           !    Initial Parameters    !
                           ! (Angstroms and Degrees)  !
 --------------------------                            --------------------------
 ! Name  Definition              Value          Derivative Info.                !
 --------------------------------------------------------------------------------
 ! R1    R(1,2)                  1.0198         estimate D2E/DX2                !
 ! R2    R(1,4)                  1.3532         estimate D2E/DX2                !
 ! R3    R(1,59)                 1.4532         estimate D2E/DX2                !
 ! R4    R(3,4)                  1.5365         estimate D2E/DX2                !
 ! R5    R(3,6)                  1.4559         estimate D2E/DX2                !
 ! R6    R(3,15)                 1.0904         estimate D2E/DX2                !
 ! R7    R(3,18)                 1.5411         estimate D2E/DX2                !
 ! R8    R(4,5)                  1.2363         estimate D2E/DX2                !
 ! R9    R(6,7)                  1.0167         estimate D2E/DX2                !
 ! R10   R(6,8)                  1.3448         estimate D2E/DX2                !
 ! R11   R(8,9)                  1.2444         estimate D2E/DX2                !
 ! R12   R(8,10)                 1.537          estimate D2E/DX2                !
 ! R13   R(10,11)                1.4512         estimate D2E/DX2                !
 ! R14   R(10,16)                1.0959         estimate D2E/DX2                !
 ! R15   R(10,22)                1.5428         estimate D2E/DX2                !
 ! R16   R(11,12)                1.0147         estimate D2E/DX2                !
 ! R17   R(11,13)                1.3626         estimate D2E/DX2                !
 ! R18   R(13,14)                1.2298         estimate D2E/DX2                !
 ! R19   R(13,17)                1.5374         estimate D2E/DX2                !
 ! R20   R(17,55)                1.4652         estimate D2E/DX2                !
 ! R21   R(17,63)                1.5418         estimate D2E/DX2                !
 ! R22   R(17,67)                1.0952         estimate D2E/DX2                !
 ! R23   R(18,19)                1.0954         estimate D2E/DX2                !
 ! R24   R(18,20)                1.0943         estimate D2E/DX2                !
 ! R25   R(18,21)                1.0942         estimate D2E/DX2                !
 ! R26   R(22,23)                1.0951         estimate D2E/DX2                !
 ! R27   R(22,24)                1.0957         estimate D2E/DX2                !
 ! R28   R(22,25)                1.0937         estimate D2E/DX2                !
 ! R29   R(26,27)                1.4574         estimate D2E/DX2                !
 ! R30   R(26,32)                1.534          estimate D2E/DX2                !
 ! R31   R(26,41)                1.0906         estimate D2E/DX2                !
 ! R32   R(26,44)                1.5407         estimate D2E/DX2                !
 ! R33   R(27,28)                1.0148         estimate D2E/DX2                !
 ! R34   R(27,29)                1.352          estimate D2E/DX2                !
 ! R35   R(29,30)                1.2414         estimate D2E/DX2                !
 ! R36   R(29,31)                1.5185         estimate D2E/DX2                !
 ! R37   R(31,52)                1.0938         estimate D2E/DX2                !
 ! R38   R(31,57)                1.0946         estimate D2E/DX2                !
 ! R39   R(31,58)                1.0945         estimate D2E/DX2                !
 ! R40   R(32,33)                1.237          estimate D2E/DX2                !
 ! R41   R(32,34)                1.3541         estimate D2E/DX2                !
 ! R42   R(34,35)                1.0207         estimate D2E/DX2                !
 ! R43   R(34,36)                1.4592         estimate D2E/DX2                !
 ! R44   R(36,37)                1.5291         estimate D2E/DX2                !
 ! R45   R(36,42)                1.0971         estimate D2E/DX2                !
 ! R46   R(36,48)                1.5434         estimate D2E/DX2                !
 ! R47   R(37,38)                1.239          estimate D2E/DX2                !
 ! R48   R(37,39)                1.3556         estimate D2E/DX2                !
 ! R49   R(39,40)                1.0122         estimate D2E/DX2                !
 ! R50   R(39,43)                1.4712         estimate D2E/DX2                !
 ! R51   R(43,53)                1.5573         estimate D2E/DX2                !
 ! R52   R(43,68)                1.0967         estimate D2E/DX2                !
 ! R53   R(43,69)                1.5249         estimate D2E/DX2                !
 ! R54   R(44,45)                1.0953         estimate D2E/DX2                !
 ! R55   R(44,46)                1.0943         estimate D2E/DX2                !
 ! R56   R(44,47)                1.0939         estimate D2E/DX2                !
 ! R57   R(48,49)                1.0923         estimate D2E/DX2                !
 ! R58   R(48,50)                1.094          estimate D2E/DX2                !
 ! R59   R(48,51)                1.0961         estimate D2E/DX2                !
 ! R60   R(53,54)                1.229          estimate D2E/DX2                !
 ! R61   R(53,55)                1.3591         estimate D2E/DX2                !
 ! R62   R(55,56)                1.0186         estimate D2E/DX2                !
 ! R63   R(59,60)                1.0918         estimate D2E/DX2                !
 ! R64   R(59,61)                1.0973         estimate D2E/DX2                !
 ! R65   R(59,62)                1.0964         estimate D2E/DX2                !
 ! R66   R(63,64)                1.0918         estimate D2E/DX2                !
 ! R67   R(63,65)                1.0947         estimate D2E/DX2                !
 ! R68   R(63,66)                1.0959         estimate D2E/DX2                !
 ! R69   R(69,70)                1.0953         estimate D2E/DX2                !
 ! R70   R(69,71)                1.0926         estimate D2E/DX2                !
 ! R71   R(69,72)                1.095          estimate D2E/DX2                !
 ! A1    A(2,1,4)              118.0223         estimate D2E/DX2                !
 ! A2    A(2,1,59)             119.4235         estimate D2E/DX2                !
 ! A3    A(4,1,59)             122.4543         estimate D2E/DX2                !
 ! A4    A(4,3,6)              107.3856         estimate D2E/DX2                !
 ! A5    A(4,3,15)             109.7819         estimate D2E/DX2                !
 ! A6    A(4,3,18)             110.1978         estimate D2E/DX2                !
 ! A7    A(6,3,15)             108.8724         estimate D2E/DX2                !
 ! A8    A(6,3,18)             111.6185         estimate D2E/DX2                !
 ! A9    A(15,3,18)            108.9566         estimate D2E/DX2                !
 ! A10   A(1,4,3)              114.0898         estimate D2E/DX2                !
 ! A11   A(1,4,5)              125.2867         estimate D2E/DX2                !
 ! A12   A(3,4,5)              120.5943         estimate D2E/DX2                !
 ! A13   A(3,6,7)              114.8112         estimate D2E/DX2                !
 ! A14   A(3,6,8)              123.4363         estimate D2E/DX2                !
 ! A15   A(7,6,8)              121.507          estimate D2E/DX2                !
 ! A16   A(6,8,9)              123.1696         estimate D2E/DX2                !
 ! A17   A(6,8,10)             115.7284         estimate D2E/DX2                !
 ! A18   A(9,8,10)             121.099          estimate D2E/DX2                !
 ! A19   A(8,10,11)            107.0379         estimate D2E/DX2                !
 ! A20   A(8,10,16)            109.7835         estimate D2E/DX2                !
 ! A21   A(8,10,22)            110.8108         estimate D2E/DX2                !
 ! A22   A(11,10,16)           108.182          estimate D2E/DX2                !
 ! A23   A(11,10,22)           112.1424         estimate D2E/DX2                !
 ! A24   A(16,10,22)           108.829          estimate D2E/DX2                !
 ! A25   A(10,11,12)           114.8459         estimate D2E/DX2                !
 ! A26   A(10,11,13)           122.7578         estimate D2E/DX2                !
 ! A27   A(12,11,13)           121.9712         estimate D2E/DX2                !
 ! A28   A(11,13,14)           123.1453         estimate D2E/DX2                !
 ! A29   A(11,13,17)           115.5783         estimate D2E/DX2                !
 ! A30   A(14,13,17)           121.2189         estimate D2E/DX2                !
 ! A31   A(13,17,55)           110.4394         estimate D2E/DX2                !
 ! A32   A(13,17,63)           108.9688         estimate D2E/DX2                !
 ! A33   A(13,17,67)           106.0067         estimate D2E/DX2                !
 ! A34   A(55,17,63)           112.8658         estimate D2E/DX2                !
 ! A35   A(55,17,67)           109.568          estimate D2E/DX2                !
 ! A36   A(63,17,67)           108.7478         estimate D2E/DX2                !
 ! A37   A(3,18,19)            110.6536         estimate D2E/DX2                !
 ! A38   A(3,18,20)            110.2286         estimate D2E/DX2                !
 ! A39   A(3,18,21)            109.7821         estimate D2E/DX2                !
 ! A40   A(19,18,20)           108.8385         estimate D2E/DX2                !
 ! A41   A(19,18,21)           108.735          estimate D2E/DX2                !
 ! A42   A(20,18,21)           108.5556         estimate D2E/DX2                !
 ! A43   A(10,22,23)           110.3766         estimate D2E/DX2                !
 ! A44   A(10,22,24)           111.3022         estimate D2E/DX2                !
 ! A45   A(10,22,25)           108.9912         estimate D2E/DX2                !
 ! A46   A(23,22,24)           108.7891         estimate D2E/DX2                !
 ! A47   A(23,22,25)           108.9041         estimate D2E/DX2                !
 ! A48   A(24,22,25)           108.4244         estimate D2E/DX2                !
 ! A49   A(27,26,32)           106.9053         estimate D2E/DX2                !
 ! A50   A(27,26,41)           108.8164         estimate D2E/DX2                !
 ! A51   A(27,26,44)           112.0463         estimate D2E/DX2                !
 ! A52   A(32,26,41)           110.1713         estimate D2E/DX2                !
 ! A53   A(32,26,44)           109.971          estimate D2E/DX2                !
 ! A54   A(41,26,44)           108.9086         estimate D2E/DX2                !
 ! A55   A(26,27,28)           115.1339         estimate D2E/DX2                !
 ! A56   A(26,27,29)           123.5861         estimate D2E/DX2                !
 ! A57   A(28,27,29)           121.1677         estimate D2E/DX2                !
 ! A58   A(27,29,30)           122.6751         estimate D2E/DX2                !
 ! A59   A(27,29,31)           116.1732         estimate D2E/DX2                !
 ! A60   A(30,29,31)           121.1517         estimate D2E/DX2                !
 ! A61   A(29,31,52)           113.3838         estimate D2E/DX2                !
 ! A62   A(29,31,57)           108.6959         estimate D2E/DX2                !
 ! A63   A(29,31,58)           108.6381         estimate D2E/DX2                !
 ! A64   A(52,31,57)           109.1736         estimate D2E/DX2                !
 ! A65   A(52,31,58)           109.21           estimate D2E/DX2                !
 ! A66   A(57,31,58)           107.5777         estimate D2E/DX2                !
 ! A67   A(26,32,33)           120.7182         estimate D2E/DX2                !
 ! A68   A(26,32,34)           115.4588         estimate D2E/DX2                !
 ! A69   A(33,32,34)           123.8059         estimate D2E/DX2                !
 ! A70   A(32,34,35)           119.8058         estimate D2E/DX2                !
 ! A71   A(32,34,36)           120.8565         estimate D2E/DX2                !
 ! A72   A(35,34,36)           119.2343         estimate D2E/DX2                !
 ! A73   A(34,36,37)           108.371          estimate D2E/DX2                !
 ! A74   A(34,36,42)           108.1027         estimate D2E/DX2                !
 ! A75   A(34,36,48)           112.3497         estimate D2E/DX2                !
 ! A76   A(37,36,42)           110.872          estimate D2E/DX2                !
 ! A77   A(37,36,48)           108.4989         estimate D2E/DX2                !
 ! A78   A(42,36,48)           108.6649         estimate D2E/DX2                !
 ! A79   A(36,37,38)           120.7721         estimate D2E/DX2                !
 ! A80   A(36,37,39)           116.318          estimate D2E/DX2                !
 ! A81   A(38,37,39)           122.8403         estimate D2E/DX2                !
 ! A82   A(37,39,40)           118.8724         estimate D2E/DX2                !
 ! A83   A(37,39,43)           123.4918         estimate D2E/DX2                !
 ! A84   A(40,39,43)           117.6279         estimate D2E/DX2                !
 ! A85   A(39,43,53)           111.7706         estimate D2E/DX2                !
 ! A86   A(39,43,68)           106.2514         estimate D2E/DX2                !
 ! A87   A(39,43,69)           109.8234         estimate D2E/DX2                !
 ! A88   A(53,43,68)           107.5103         estimate D2E/DX2                !
 ! A89   A(53,43,69)           111.0178         estimate D2E/DX2                !
 ! A90   A(68,43,69)           110.3345         estimate D2E/DX2                !
 ! A91   A(26,44,45)           110.6225         estimate D2E/DX2                !
 ! A92   A(26,44,46)           110.1706         estimate D2E/DX2                !
 ! A93   A(26,44,47)           109.5645         estimate D2E/DX2                !
 ! A94   A(45,44,46)           109.1378         estimate D2E/DX2                !
 ! A95   A(45,44,47)           108.8589         estimate D2E/DX2                !
 ! A96   A(46,44,47)           108.4427         estimate D2E/DX2                !
 ! A97   A(36,48,49)           109.2258         estimate D2E/DX2                !
 ! A98   A(36,48,50)           109.9474         estimate D2E/DX2                !
 ! A99   A(36,48,51)           110.6383         estimate D2E/DX2                !
 ! A100  A(49,48,50)           109.6128         estimate D2E/DX2                !
 ! A101  A(49,48,51)           108.6387         estimate D2E/DX2                !
 ! A102  A(50,48,51)           108.7549         estimate D2E/DX2                !
 ! A103  A(43,53,54)           121.9534         estimate D2E/DX2                !
 ! A104  A(43,53,55)           113.0241         estimate D2E/DX2                !
 ! A105  A(54,53,55)           125.017          estimate D2E/DX2                !
 ! A106  A(17,55,53)           124.4084         estimate D2E/DX2                !
 ! A107  A(17,55,56)           119.4863         estimate D2E/DX2                !
 ! A108  A(53,55,56)           116.0194         estimate D2E/DX2                !
 ! A109  A(1,59,60)            108.3036         estimate D2E/DX2                !
 ! A110  A(1,59,61)            111.2117         estimate D2E/DX2                !
 ! A111  A(1,59,62)            110.6744         estimate D2E/DX2                !
 ! A112  A(60,59,61)           108.7598         estimate D2E/DX2                !
 ! A113  A(60,59,62)           109.1994         estimate D2E/DX2                !
 ! A114  A(61,59,62)           108.6517         estimate D2E/DX2                !
 ! A115  A(17,63,64)           109.8054         estimate D2E/DX2                !
 ! A116  A(17,63,65)           109.3453         estimate D2E/DX2                !
 ! A117  A(17,63,66)           110.7635         estimate D2E/DX2                !
 ! A118  A(64,63,65)           109.1561         estimate D2E/DX2                !
 ! A119  A(64,63,66)           109.0115         estimate D2E/DX2                !
 ! A120  A(65,63,66)           108.7301         estimate D2E/DX2                !
 ! A121  A(43,69,70)           110.463          estimate D2E/DX2                !
 ! A122  A(43,69,71)           110.0085         estimate D2E/DX2                !
 ! A123  A(43,69,72)           110.8039         estimate D2E/DX2                !
 ! A124  A(70,69,71)           108.8982         estimate D2E/DX2                !
 ! A125  A(70,69,72)           109.685          estimate D2E/DX2                !
 ! A126  A(71,69,72)           106.8987         estimate D2E/DX2                !
 ! D1    D(2,1,4,3)             -6.663          estimate D2E/DX2                !
 ! D2    D(2,1,4,5)            175.3021         estimate D2E/DX2                !
 ! D3    D(59,1,4,3)           176.9967         estimate D2E/DX2                !
 ! D4    D(59,1,4,5)            -1.0383         estimate D2E/DX2                !
 ! D5    D(2,1,59,60)          177.0782         estimate D2E/DX2                !
 ! D6    D(2,1,59,61)          -63.4669         estimate D2E/DX2                !
 ! D7    D(2,1,59,62)           57.4053         estimate D2E/DX2                !
 ! D8    D(4,1,59,60)           -6.6309         estimate D2E/DX2                !
 ! D9    D(4,1,59,61)          112.8241         estimate D2E/DX2                !
 ! D10   D(4,1,59,62)         -126.3038         estimate D2E/DX2                !
 ! D11   D(6,3,4,1)            156.081          estimate D2E/DX2                !
 ! D12   D(6,3,4,5)            -25.7824         estimate D2E/DX2                !
 ! D13   D(15,3,4,1)            37.8638         estimate D2E/DX2                !
 ! D14   D(15,3,4,5)          -143.9996         estimate D2E/DX2                !
 ! D15   D(18,3,4,1)           -82.1468         estimate D2E/DX2                !
 ! D16   D(18,3,4,5)            95.9898         estimate D2E/DX2                !
 ! D17   D(4,3,6,7)             27.2468         estimate D2E/DX2                !
 ! D18   D(4,3,6,8)           -147.1264         estimate D2E/DX2                !
 ! D19   D(15,3,6,7)           146.0513         estimate D2E/DX2                !
 ! D20   D(15,3,6,8)           -28.3219         estimate D2E/DX2                !
 ! D21   D(18,3,6,7)           -93.6336         estimate D2E/DX2                !
 ! D22   D(18,3,6,8)            91.9932         estimate D2E/DX2                !
 ! D23   D(4,3,18,19)          -55.9602         estimate D2E/DX2                !
 ! D24   D(4,3,18,20)           64.4818         estimate D2E/DX2                !
 ! D25   D(4,3,18,21)         -175.9837         estimate D2E/DX2                !
 ! D26   D(6,3,18,19)           63.2662         estimate D2E/DX2                !
 ! D27   D(6,3,18,20)         -176.2918         estimate D2E/DX2                !
 ! D28   D(6,3,18,21)          -56.7573         estimate D2E/DX2                !
 ! D29   D(15,3,18,19)        -176.4681         estimate D2E/DX2                !
 ! D30   D(15,3,18,20)         -56.0261         estimate D2E/DX2                !
 ! D31   D(15,3,18,21)          63.5084         estimate D2E/DX2                !
 ! D32   D(3,6,8,9)             -1.3143         estimate D2E/DX2                !
 ! D33   D(3,6,8,10)           178.0646         estimate D2E/DX2                !
 ! D34   D(7,6,8,9)           -175.3225         estimate D2E/DX2                !
 ! D35   D(7,6,8,10)             4.0564         estimate D2E/DX2                !
 ! D36   D(6,8,10,11)          159.8265         estimate D2E/DX2                !
 ! D37   D(6,8,10,16)           42.629          estimate D2E/DX2                !
 ! D38   D(6,8,10,22)          -77.6121         estimate D2E/DX2                !
 ! D39   D(9,8,10,11)          -20.7807         estimate D2E/DX2                !
 ! D40   D(9,8,10,16)         -137.9782         estimate D2E/DX2                !
 ! D41   D(9,8,10,22)          101.7807         estimate D2E/DX2                !
 ! D42   D(8,10,11,12)          22.2444         estimate D2E/DX2                !
 ! D43   D(8,10,11,13)        -150.4006         estimate D2E/DX2                !
 ! D44   D(16,10,11,12)        140.4904         estimate D2E/DX2                !
 ! D45   D(16,10,11,13)        -32.1546         estimate D2E/DX2                !
 ! D46   D(22,10,11,12)        -99.4831         estimate D2E/DX2                !
 ! D47   D(22,10,11,13)         87.8719         estimate D2E/DX2                !
 ! D48   D(8,10,22,23)         -58.9707         estimate D2E/DX2                !
 ! D49   D(8,10,22,24)          61.9341         estimate D2E/DX2                !
 ! D50   D(8,10,22,25)        -178.5309         estimate D2E/DX2                !
 ! D51   D(11,10,22,23)         60.5721         estimate D2E/DX2                !
 ! D52   D(11,10,22,24)       -178.5231         estimate D2E/DX2                !
 ! D53   D(11,10,22,25)        -58.9881         estimate D2E/DX2                !
 ! D54   D(16,10,22,23)       -179.7789         estimate D2E/DX2                !
 ! D55   D(16,10,22,24)        -58.8741         estimate D2E/DX2                !
 ! D56   D(16,10,22,25)         60.6609         estimate D2E/DX2                !
 ! D57   D(10,11,13,14)         -2.5331         estimate D2E/DX2                !
 ! D58   D(10,11,13,17)        174.7349         estimate D2E/DX2                !
 ! D59   D(12,11,13,14)       -174.6623         estimate D2E/DX2                !
 ! D60   D(12,11,13,17)          2.6057         estimate D2E/DX2                !
 ! D61   D(11,13,17,55)         38.5642         estimate D2E/DX2                !
 ! D62   D(11,13,17,63)        -85.9485         estimate D2E/DX2                !
 ! D63   D(11,13,17,67)        157.1684         estimate D2E/DX2                !
 ! D64   D(14,13,17,55)       -144.1105         estimate D2E/DX2                !
 ! D65   D(14,13,17,63)         91.3767         estimate D2E/DX2                !
 ! D66   D(14,13,17,67)        -25.5064         estimate D2E/DX2                !
 ! D67   D(13,17,55,53)        178.1636         estimate D2E/DX2                !
 ! D68   D(13,17,55,56)          1.6722         estimate D2E/DX2                !
 ! D69   D(63,17,55,53)        -59.5846         estimate D2E/DX2                !
 ! D70   D(63,17,55,56)        123.924          estimate D2E/DX2                !
 ! D71   D(67,17,55,53)         61.7541         estimate D2E/DX2                !
 ! D72   D(67,17,55,56)       -114.7373         estimate D2E/DX2                !
 ! D73   D(13,17,63,64)       -175.4255         estimate D2E/DX2                !
 ! D74   D(13,17,63,65)        -55.6847         estimate D2E/DX2                !
 ! D75   D(13,17,63,66)         64.1218         estimate D2E/DX2                !
 ! D76   D(55,17,63,64)         61.5011         estimate D2E/DX2                !
 ! D77   D(55,17,63,65)       -178.758          estimate D2E/DX2                !
 ! D78   D(55,17,63,66)        -58.9516         estimate D2E/DX2                !
 ! D79   D(67,17,63,64)        -60.3012         estimate D2E/DX2                !
 ! D80   D(67,17,63,65)         59.4397         estimate D2E/DX2                !
 ! D81   D(67,17,63,66)        179.2461         estimate D2E/DX2                !
 ! D82   D(32,26,27,28)         27.4564         estimate D2E/DX2                !
 ! D83   D(32,26,27,29)       -148.723          estimate D2E/DX2                !
 ! D84   D(41,26,27,28)        146.4238         estimate D2E/DX2                !
 ! D85   D(41,26,27,29)        -29.7556         estimate D2E/DX2                !
 ! D86   D(44,26,27,28)        -93.0883         estimate D2E/DX2                !
 ! D87   D(44,26,27,29)         90.7323         estimate D2E/DX2                !
 ! D88   D(27,26,32,33)        -32.5809         estimate D2E/DX2                !
 ! D89   D(27,26,32,34)        148.8694         estimate D2E/DX2                !
 ! D90   D(41,26,32,33)       -150.6659         estimate D2E/DX2                !
 ! D91   D(41,26,32,34)         30.7844         estimate D2E/DX2                !
 ! D92   D(44,26,32,33)         89.2797         estimate D2E/DX2                !
 ! D93   D(44,26,32,34)        -89.27           estimate D2E/DX2                !
 ! D94   D(27,26,44,45)         63.0256         estimate D2E/DX2                !
 ! D95   D(27,26,44,46)       -176.2163         estimate D2E/DX2                !
 ! D96   D(27,26,44,47)        -56.9923         estimate D2E/DX2                !
 ! D97   D(32,26,44,45)        -55.723          estimate D2E/DX2                !
 ! D98   D(32,26,44,46)         65.0351         estimate D2E/DX2                !
 ! D99   D(32,26,44,47)       -175.7409         estimate D2E/DX2                !
 ! D100  D(41,26,44,45)       -176.5401         estimate D2E/DX2                !
 ! D101  D(41,26,44,46)        -55.782          estimate D2E/DX2                !
 ! D102  D(41,26,44,47)         63.442          estimate D2E/DX2                !
 ! D103  D(26,27,29,30)         -1.375          estimate D2E/DX2                !
 ! D104  D(26,27,29,31)        178.6436         estimate D2E/DX2                !
 ! D105  D(28,27,29,30)       -177.3323         estimate D2E/DX2                !
 ! D106  D(28,27,29,31)          2.6863         estimate D2E/DX2                !
 ! D107  D(27,29,31,52)         -0.7376         estimate D2E/DX2                !
 ! D108  D(27,29,31,57)        120.8687         estimate D2E/DX2                !
 ! D109  D(27,29,31,58)       -122.349          estimate D2E/DX2                !
 ! D110  D(30,29,31,52)        179.2806         estimate D2E/DX2                !
 ! D111  D(30,29,31,57)        -59.1131         estimate D2E/DX2                !
 ! D112  D(30,29,31,58)         57.6692         estimate D2E/DX2                !
 ! D113  D(26,32,34,35)         -5.1332         estimate D2E/DX2                !
 ! D114  D(26,32,34,36)        178.5938         estimate D2E/DX2                !
 ! D115  D(33,32,34,35)        176.3674         estimate D2E/DX2                !
 ! D116  D(33,32,34,36)          0.0944         estimate D2E/DX2                !
 ! D117  D(32,34,36,37)       -168.2753         estimate D2E/DX2                !
 ! D118  D(32,34,36,42)        -48.0418         estimate D2E/DX2                !
 ! D119  D(32,34,36,48)         71.8557         estimate D2E/DX2                !
 ! D120  D(35,34,36,37)         15.4307         estimate D2E/DX2                !
 ! D121  D(35,34,36,42)        135.6642         estimate D2E/DX2                !
 ! D122  D(35,34,36,48)       -104.4383         estimate D2E/DX2                !
 ! D123  D(34,36,37,38)        -46.4952         estimate D2E/DX2                !
 ! D124  D(34,36,37,39)        136.4548         estimate D2E/DX2                !
 ! D125  D(42,36,37,38)       -164.9867         estimate D2E/DX2                !
 ! D126  D(42,36,37,39)         17.9633         estimate D2E/DX2                !
 ! D127  D(48,36,37,38)         75.7551         estimate D2E/DX2                !
 ! D128  D(48,36,37,39)       -101.2948         estimate D2E/DX2                !
 ! D129  D(34,36,48,49)        -58.9277         estimate D2E/DX2                !
 ! D130  D(34,36,48,50)         61.3867         estimate D2E/DX2                !
 ! D131  D(34,36,48,51)       -178.4683         estimate D2E/DX2                !
 ! D132  D(37,36,48,49)       -178.7223         estimate D2E/DX2                !
 ! D133  D(37,36,48,50)        -58.4078         estimate D2E/DX2                !
 ! D134  D(37,36,48,51)         61.7372         estimate D2E/DX2                !
 ! D135  D(42,36,48,49)         60.6426         estimate D2E/DX2                !
 ! D136  D(42,36,48,50)       -179.0429         estimate D2E/DX2                !
 ! D137  D(42,36,48,51)        -58.8979         estimate D2E/DX2                !
 ! D138  D(36,37,39,40)         -8.5045         estimate D2E/DX2                !
 ! D139  D(36,37,39,43)        170.4487         estimate D2E/DX2                !
 ! D140  D(38,37,39,40)        174.5124         estimate D2E/DX2                !
 ! D141  D(38,37,39,43)         -6.5344         estimate D2E/DX2                !
 ! D142  D(37,39,43,53)         81.3377         estimate D2E/DX2                !
 ! D143  D(37,39,43,68)        -35.6556         estimate D2E/DX2                !
 ! D144  D(37,39,43,69)       -154.986          estimate D2E/DX2                !
 ! D145  D(40,39,43,53)        -99.697          estimate D2E/DX2                !
 ! D146  D(40,39,43,68)        143.3097         estimate D2E/DX2                !
 ! D147  D(40,39,43,69)         23.9793         estimate D2E/DX2                !
 ! D148  D(39,43,53,54)        112.6473         estimate D2E/DX2                !
 ! D149  D(39,43,53,55)        -68.1647         estimate D2E/DX2                !
 ! D150  D(68,43,53,54)       -131.1219         estimate D2E/DX2                !
 ! D151  D(68,43,53,55)         48.0661         estimate D2E/DX2                !
 ! D152  D(69,43,53,54)        -10.353          estimate D2E/DX2                !
 ! D153  D(69,43,53,55)        168.835          estimate D2E/DX2                !
 ! D154  D(39,43,69,70)         58.0208         estimate D2E/DX2                !
 ! D155  D(39,43,69,71)        178.2716         estimate D2E/DX2                !
 ! D156  D(39,43,69,72)        -63.7409         estimate D2E/DX2                !
 ! D157  D(53,43,69,70)       -177.8639         estimate D2E/DX2                !
 ! D158  D(53,43,69,71)        -57.6131         estimate D2E/DX2                !
 ! D159  D(53,43,69,72)         60.3744         estimate D2E/DX2                !
 ! D160  D(68,43,69,70)        -58.7771         estimate D2E/DX2                !
 ! D161  D(68,43,69,71)         61.4737         estimate D2E/DX2                !
 ! D162  D(68,43,69,72)        179.4612         estimate D2E/DX2                !
 ! D163  D(43,53,55,17)       -178.378          estimate D2E/DX2                !
 ! D164  D(43,53,55,56)         -1.7765         estimate D2E/DX2                !
 ! D165  D(54,53,55,17)          0.7808         estimate D2E/DX2                !
 ! D166  D(54,53,55,56)        177.3823         estimate D2E/DX2                !
 --------------------------------------------------------------------------------
 Trust Radius=3.00D-01 FncErr=1.00D-07 GrdErr=1.00D-07 EigMax=2.50D+02 EigMin=1.00D-04
 Number of steps in this run=    373 maximum allowed number of steps=    432.
 GradGradGradGradGradGradGradGradGradGradGradGradGradGradGradGradGradGrad

 Leave Link  103 at Mon Feb 14 17:55:00 2022, MaxMem=  8589934592 cpu:               0.1 elap:               0.0
 (Enter /share/apps/g16.b01_avx2/g16/l202.exe)
 Stoichiometry    C21H37N7O7
 Framework group  C1[X(C21H37N7O7)]
 Deg. of freedom   210
 Full point group                 C1      NOp   1
 Largest Abelian subgroup         C1      NOp   1
 Largest concise Abelian subgroup C1      NOp   1
                         Standard orientation:                         
 ---------------------------------------------------------------------
 Center     Atomic      Atomic             Coordinates (Angstroms)
 Number     Number       Type             X           Y           Z
 ---------------------------------------------------------------------
      1          7           0        5.355454   -1.401243   -0.578107
      2          1           0        5.221925   -0.427273   -0.306874
      3          6           0        3.134139   -1.655032    0.365618
      4          6           0        4.326299   -2.259903   -0.391794
      5          8           0        4.311312   -3.444256   -0.745961
      6          7           0        1.952644   -2.424710    0.003128
      7          1           0        2.137013   -3.387167   -0.267828
      8          6           0        0.720709   -1.892973   -0.086753
      9          8           0        0.475958   -0.697169    0.155531
     10          6           0       -0.391667   -2.857341   -0.528262
     11          7           0       -1.652185   -2.272793   -0.109446
     12          1           0       -1.628083   -1.269467    0.040057
     13          6           0       -2.742856   -3.023989    0.211057
     14          8           0       -2.762137   -4.250887    0.128525
     15          1           0        2.988443   -0.619160    0.057701
     16          1           0       -0.273761   -3.818983   -0.016104
     17          6           0       -3.950795   -2.242753    0.753318
     18          6           0        3.393362   -1.694155    1.884268
     19          1           0        3.605794   -2.717003    2.213738
     20          1           0        4.245506   -1.056621    2.139224
     21          1           0        2.512188   -1.328256    2.419904
     22          6           0       -0.338497   -3.094782   -2.051803
     23          1           0       -0.450181   -2.147367   -2.589475
     24          1           0        0.607813   -3.559983   -2.349357
     25          1           0       -1.156506   -3.762447   -2.336708
     26          6           0        1.912574    2.159290    0.815249
     27          7           0        3.078125    3.004707    0.589782
     28          1           0        2.895946    4.002889    0.604745
     29          6           0        4.307467    2.522034    0.300357
     30          8           0        4.550118    1.306825    0.226861
     31          6           0        5.394877    3.555800    0.066149
     32          6           0        0.688759    2.949222    0.334129
     33          8           0        0.655173    4.182069    0.429101
     34          7           0       -0.329033    2.203459   -0.157226
     35          1           0       -0.215065    1.194331   -0.259842
     36          6           0       -1.562195    2.832015   -0.619325
     37          6           0       -2.609762    1.738774   -0.832616
     38          8           0       -2.325100    0.698309   -1.442136
     39          7           0       -3.858085    2.005323   -0.376294
     40          1           0       -4.006239    2.833400    0.186589
     41          1           0        2.023153    1.244770    0.231493
     42          1           0       -1.890587    3.543613    0.148455
     43          6           0       -5.027800    1.163739   -0.672893
     44          6           0        1.747359    1.786335    2.300999
     45          1           0        1.572554    2.682161    2.906479
     46          1           0        0.905203    1.098814    2.426075
     47          1           0        2.654912    1.290302    2.657272
     48          6           0       -1.370800    3.592859   -1.948459
     49          1           0       -0.607445    4.362788   -1.815484
     50          1           0       -1.059116    2.898590   -2.734400
     51          1           0       -2.305690    4.075768   -2.255255
     52          1           0        5.039086    4.586759    0.149953
     53          6           0       -5.098932   -0.077592    0.264810
     54          8           0       -5.988551   -0.209903    1.102398
     55          7           0       -4.101833   -0.972903    0.038067
     56          1           0       -3.459721   -0.744378   -0.718849
     57          1           0        6.196962    3.392116    0.792775
     58          1           0        5.816252    3.400260   -0.931944
     59          6           0        6.598726   -1.800753   -1.215598
     60          1           0        6.569145   -2.879877   -1.378594
     61          1           0        6.726808   -1.300967   -2.184020
     62          1           0        7.456634   -1.555738   -0.578385
     63          6           0       -3.785601   -2.057300    2.274993
     64          1           0       -4.674149   -1.575393    2.687534
     65          1           0       -3.655674   -3.036127    2.747607
     66          1           0       -2.908365   -1.439586    2.498110
     67          1           0       -4.826370   -2.874127    0.568676
     68          1           0       -4.889752    0.796227   -1.696969
     69          6           0       -6.301776    1.996199   -0.575856
     70          1           0       -6.257880    2.845328   -1.266356
     71          1           0       -7.169886    1.381573   -0.825529
     72          1           0       -6.452195    2.359289    0.446183
 ---------------------------------------------------------------------
 Rotational constants (GHZ):           0.1466104           0.0725378           0.0538601
 Leave Link  202 at Mon Feb 14 17:55:00 2022, MaxMem=  8589934592 cpu:               0.1 elap:               0.0
 (Enter /share/apps/g16.b01_avx2/g16/l301.exe)
 Standard basis: 6-31+G(d,p) (6D, 7F)
 Ernie: Thresh=  0.10000D-02 Tol=  0.10000D-05 Strict=F.
 There are   850 symmetry adapted cartesian basis functions of A   symmetry.
 There are   850 symmetry adapted basis functions of A   symmetry.
   850 basis functions,  1379 primitive gaussians,   850 cartesian basis functions
   134 alpha electrons      134 beta electrons
       nuclear repulsion energy      4124.4115134522 Hartrees.
 IExCor= 1009 DFT=T Ex+Corr=PBE1PBE ExCW=0 ScaHFX=  0.250000
 ScaDFX=  0.750000  0.750000  1.000000  1.000000 ScalE2=  1.000000  1.000000
 IRadAn=  99590 IRanWt=     -1 IRanGd=            0 ICorTp=0 IEmpDi=131
 NAtoms=   72 NActive=   72 NUniq=   72 SFac= 1.00D+00 NAtFMM=   60 NAOKFM=T Big=T
 Integral buffers will be    131072 words long.
 Raffenetti 2 integral format.
 Two-electron integral symmetry is turned on.
 R6Disp:  Grimme-D3 Dispersion energy=       -0.0589038410 Hartrees.
 Nuclear repulsion after empirical dispersion term =     4124.3526096112 Hartrees.
 Leave Link  301 at Mon Feb 14 17:55:00 2022, MaxMem=  8589934592 cpu:               0.7 elap:               0.0
 (Enter /share/apps/g16.b01_avx2/g16/l302.exe)
 NPDir=0 NMtPBC=     1 NCelOv=     1 NCel=       1 NClECP=     1 NCelD=      1
         NCelK=      1 NCelE2=     1 NClLst=     1 CellRange=     0.0.
 One-electron integrals computed using PRISM.
 One-electron integral symmetry used in STVInt
 NBasis=   850 RedAO= T EigKep=  2.86D-06  NBF=   850
 NBsUse=   850 1.00D-06 EigRej= -1.00D+00 NBFU=   850
 Precomputing XC quadrature grid using
 IXCGrd= 4 IRadAn=       99590 IRanWt=          -1 IRanGd=           0 AccXCQ= 0.00D+00.
 Generated NRdTot=       0 NPtTot=           0 NUsed=           0 NTot=          32
 NSgBfM=   833   833   833   833   833 MxSgAt=    72 MxSgA2=    72.
 Leave Link  302 at Mon Feb 14 17:55:01 2022, MaxMem=  8589934592 cpu:              20.1 elap:               0.8
 (Enter /share/apps/g16.b01_avx2/g16/l303.exe)
 DipDrv:  MaxL=1.
 Leave Link  303 at Mon Feb 14 17:55:01 2022, MaxMem=  8589934592 cpu:               1.4 elap:               0.1
 (Enter /share/apps/g16.b01_avx2/g16/l401.exe)
 ExpMin= 4.38D-02 ExpMax= 5.48D+03 ExpMxC= 8.25D+02 IAcc=4 IRadAn=    199590 AccDes= 0.00D+00
 Harris functional with IExCor= 1009 and IRadAn=  199590 diagonalized for initial guess.
 HarFok:  IExCor= 1009 AccDes= 0.00D+00 IRadAn=    199590 IDoV= 1 UseB2=F ITyADJ=14
 ICtDFT=  3500011 ScaDFX=  1.000000  1.000000  1.000000  1.000000
 FoFCou: FMM=F IPFlag=           0 FMFlag=      100000 FMFlg1=        2001
         NFxFlg=           0 DoJE=T BraDBF=F KetDBF=T FulRan=T
         wScrn=  0.000000 ICntrl=       500 IOpCl=  0 I1Cent=   200000004 NGrid=           0
         NMat0=    1 NMatS0=      1 NMatT0=    0 NMatD0=    1 NMtDS0=    0 NMtDT0=    0
 Petite list used in FoFCou.
 Harris En= -1731.10176649091    
 JPrj=0 DoOrth=F DoCkMO=F.
 Leave Link  401 at Mon Feb 14 17:55:08 2022, MaxMem=  8589934592 cpu:             185.6 elap:               7.7
 (Enter /share/apps/g16.b01_avx2/g16/l502.exe)
 Integral symmetry usage will be decided dynamically.
 Closed shell SCF:
 Using DIIS extrapolation, IDIIS=  1040.
 NGot=  8589934592 LenX=  8588460558 LenY=  8587737208
 Requested convergence on RMS density matrix=1.00D-08 within 128 cycles.
 Requested convergence on MAX density matrix=1.00D-06.
 Requested convergence on             energy=1.00D-06.
 No special actions if energy rises.
 Fock matrices will be formed incrementally for  20 cycles.

 Cycle   1  Pass 1  IDiag  1:
 FoFJK:  IHMeth= 1 ICntrl=       0 DoSepK=F KAlg= 0 I1Cent=           0 FoldK=F
 IRaf= 880000000 NMat=       1 IRICut=       1 DoRegI=T DoRafI=F ISym2E= 0 IDoP0=0 IntGTp=1.
 FoFCou: FMM=T IPFlag=           0 FMFlag=      100000 FMFlg1=        2001
         NFxFlg=           0 DoJE=F BraDBF=F KetDBF=F FulRan=T
         wScrn=  0.000000 ICntrl=         0 IOpCl=  0 I1Cent=           0 NGrid=           0
         NMat0=    1 NMatS0=      1 NMatT0=    0 NMatD0=    1 NMtDS0=    0 NMtDT0=    0
 Symmetry not used in FoFCou.
 FMM levels:  10  Number of levels for PrismC:   9
 E= -1729.87536668362    
 DIIS: error= 1.19D-02 at cycle   1 NSaved=   1.
 NSaved= 1 IEnMin= 1 EnMin= -1729.87536668362     IErMin= 1 ErrMin= 1.19D-02
 ErrMax= 1.19D-02  0.00D+00 EMaxC= 1.00D-01 BMatC= 1.04D+00 BMatP= 1.04D+00
 IDIUse=3 WtCom= 8.81D-01 WtEn= 1.19D-01
 Coeff-Com:  0.100D+01
 Coeff-En:   0.100D+01
 Coeff:      0.100D+01
 Gap=     0.250 Goal=   None    Shift=    0.000
 GapD=    0.250 DampG=1.000 DampE=0.500 DampFc=0.5000 IDamp=-1.
 Damping current iteration by 5.00D-01
 RMSDP=1.30D-02 MaxDP=3.09D+00              OVMax= 2.50D-01

 Cycle   2  Pass 1  IDiag  1:
 RMSU=  6.02D-03    CP:  1.12D+00
 E= -1730.14231054015     Delta-E=       -0.266943856534 Rises=F Damp=T
 DIIS: error= 5.31D-03 at cycle   2 NSaved=   2.
 NSaved= 2 IEnMin= 2 EnMin= -1730.14231054015     IErMin= 2 ErrMin= 5.31D-03
 ErrMax= 5.31D-03  0.00D+00 EMaxC= 1.00D-01 BMatC= 1.55D-01 BMatP= 1.04D+00
 IDIUse=3 WtCom= 9.47D-01 WtEn= 5.31D-02
 Coeff-Com:  0.197D+00 0.803D+00
 Coeff-En:   0.313D+00 0.687D+00
 Coeff:      0.203D+00 0.797D+00
 Gap=     0.277 Goal=   None    Shift=    0.000
 RMSDP=6.56D-03 MaxDP=1.71D+00 DE=-2.67D-01 OVMax= 1.61D-01

 Cycle   3  Pass 1  IDiag  1:
 RMSU=  3.10D-03    CP:  8.82D-01  4.59D-01
 E= -1730.63642723125     Delta-E=       -0.494116691104 Rises=F Damp=F
 DIIS: error= 5.55D-03 at cycle   3 NSaved=   3.
 NSaved= 3 IEnMin= 3 EnMin= -1730.63642723125     IErMin= 2 ErrMin= 5.31D-03
 ErrMax= 5.55D-03  0.00D+00 EMaxC= 1.00D-01 BMatC= 1.35D-01 BMatP= 1.55D-01
 IDIUse=3 WtCom= 9.45D-01 WtEn= 5.55D-02
 Coeff-Com:  0.420D-01 0.477D+00 0.481D+00
 Coeff-En:   0.000D+00 0.000D+00 0.100D+01
 Coeff:      0.396D-01 0.451D+00 0.510D+00
 Gap=     0.265 Goal=   None    Shift=    0.000
 RMSDP=1.64D-03 MaxDP=2.28D-01 DE=-4.94D-01 OVMax= 8.59D-02

 Cycle   4  Pass 1  IDiag  1:
 RMSU=  1.60D-03    CP:  8.72D-01  4.80D-01  9.16D-01
 E= -1730.73837760356     Delta-E=       -0.101950372306 Rises=F Damp=F
 DIIS: error= 1.65D-03 at cycle   4 NSaved=   4.
 NSaved= 4 IEnMin= 4 EnMin= -1730.73837760356     IErMin= 4 ErrMin= 1.65D-03
 ErrMax= 1.65D-03  0.00D+00 EMaxC= 1.00D-01 BMatC= 1.49D-02 BMatP= 1.35D-01
 IDIUse=3 WtCom= 9.84D-01 WtEn= 1.65D-02
 Coeff-Com: -0.833D-02 0.769D-01 0.270D+00 0.662D+00
 Coeff-En:   0.000D+00 0.000D+00 0.970D-01 0.903D+00
 Coeff:     -0.820D-02 0.757D-01 0.267D+00 0.666D+00
 Gap=     0.248 Goal=   None    Shift=    0.000
 RMSDP=6.09D-04 MaxDP=8.83D-02 DE=-1.02D-01 OVMax= 2.75D-02

 Cycle   5  Pass 1  IDiag  1:
 RMSU=  3.83D-04    CP:  8.80D-01  4.79D-01  9.37D-01  7.28D-01
 E= -1730.74969322832     Delta-E=       -0.011315624763 Rises=F Damp=F
 DIIS: error= 5.21D-04 at cycle   5 NSaved=   5.
 NSaved= 5 IEnMin= 5 EnMin= -1730.74969322832     IErMin= 5 ErrMin= 5.21D-04
 ErrMax= 5.21D-04  0.00D+00 EMaxC= 1.00D-01 BMatC= 1.61D-03 BMatP= 1.49D-02
 IDIUse=3 WtCom= 9.95D-01 WtEn= 5.21D-03
 Coeff-Com: -0.656D-02 0.199D-01 0.130D+00 0.390D+00 0.467D+00
 Coeff-En:   0.000D+00 0.000D+00 0.000D+00 0.172D-02 0.998D+00
 Coeff:     -0.652D-02 0.198D-01 0.129D+00 0.388D+00 0.470D+00
 Gap=     0.245 Goal=   None    Shift=    0.000
 RMSDP=2.16D-04 MaxDP=4.77D-02 DE=-1.13D-02 OVMax= 8.14D-03

 Cycle   6  Pass 1  IDiag  1:
 RMSU=  1.57D-04    CP:  8.77D-01  4.74D-01  9.40D-01  7.22D-01  6.73D-01
 E= -1730.75090872352     Delta-E=       -0.001215495202 Rises=F Damp=F
 DIIS: error= 1.85D-04 at cycle   6 NSaved=   6.
 NSaved= 6 IEnMin= 6 EnMin= -1730.75090872352     IErMin= 6 ErrMin= 1.85D-04
 ErrMax= 1.85D-04  0.00D+00 EMaxC= 1.00D-01 BMatC= 1.74D-04 BMatP= 1.61D-03
 IDIUse=3 WtCom= 9.98D-01 WtEn= 1.85D-03
 Coeff-Com: -0.313D-02 0.480D-02 0.518D-01 0.168D+00 0.292D+00 0.487D+00
 Coeff-En:   0.000D+00 0.000D+00 0.000D+00 0.000D+00 0.489D-01 0.951D+00
 Coeff:     -0.313D-02 0.479D-02 0.517D-01 0.167D+00 0.292D+00 0.488D+00
 Gap=     0.245 Goal=   None    Shift=    0.000
 RMSDP=6.36D-05 MaxDP=8.36D-03 DE=-1.22D-03 OVMax= 2.24D-03

 Cycle   7  Pass 1  IDiag  1:
 RMSU=  4.23D-05    CP:  8.76D-01  4.74D-01  9.45D-01  7.27D-01  7.05D-01
                    CP:  7.46D-01
 E= -1730.75103703909     Delta-E=       -0.000128315563 Rises=F Damp=F
 DIIS: error= 5.60D-05 at cycle   7 NSaved=   7.
 NSaved= 7 IEnMin= 7 EnMin= -1730.75103703909     IErMin= 7 ErrMin= 5.60D-05
 ErrMax= 5.60D-05  0.00D+00 EMaxC= 1.00D-01 BMatC= 1.44D-05 BMatP= 1.74D-04
 IDIUse=1 WtCom= 1.00D+00 WtEn= 0.00D+00
 Coeff-Com: -0.112D-02 0.446D-03 0.153D-01 0.520D-01 0.121D+00 0.287D+00
 Coeff-Com:  0.525D+00
 Coeff:     -0.112D-02 0.446D-03 0.153D-01 0.520D-01 0.121D+00 0.287D+00
 Coeff:      0.525D+00
 Gap=     0.245 Goal=   None    Shift=    0.000
 RMSDP=1.80D-05 MaxDP=2.64D-03 DE=-1.28D-04 OVMax= 5.96D-04

 Cycle   8  Pass 1  IDiag  1:
 RMSU=  1.27D-05    CP:  8.76D-01  4.74D-01  9.45D-01  7.29D-01  7.02D-01
                    CP:  7.47D-01  7.46D-01
 E= -1730.75104857119     Delta-E=       -0.000011532106 Rises=F Damp=F
 DIIS: error= 1.13D-05 at cycle   8 NSaved=   8.
 NSaved= 8 IEnMin= 8 EnMin= -1730.75104857119     IErMin= 8 ErrMin= 1.13D-05
 ErrMax= 1.13D-05  0.00D+00 EMaxC= 1.00D-01 BMatC= 5.02D-07 BMatP= 1.44D-05
 IDIUse=1 WtCom= 1.00D+00 WtEn= 0.00D+00
 Coeff-Com: -0.198D-03-0.134D-03 0.210D-02 0.700D-02 0.287D-01 0.809D-01
 Coeff-Com:  0.205D+00 0.677D+00
 Coeff:     -0.198D-03-0.134D-03 0.210D-02 0.700D-02 0.287D-01 0.809D-01
 Coeff:      0.205D+00 0.677D+00
 Gap=     0.245 Goal=   None    Shift=    0.000
 RMSDP=6.15D-06 MaxDP=1.21D-03 DE=-1.15D-05 OVMax= 1.94D-04

 Cycle   9  Pass 1  IDiag  1:
 RMSU=  5.27D-06    CP:  8.76D-01  4.74D-01  9.45D-01  7.29D-01  7.08D-01
                    CP:  7.50D-01  7.27D-01  8.95D-01
 E= -1730.75104889458     Delta-E=       -0.000000323392 Rises=F Damp=F
 DIIS: error= 7.36D-06 at cycle   9 NSaved=   9.
 NSaved= 9 IEnMin= 9 EnMin= -1730.75104889458     IErMin= 9 ErrMin= 7.36D-06
 ErrMax= 7.36D-06  0.00D+00 EMaxC= 1.00D-01 BMatC= 1.75D-07 BMatP= 5.02D-07
 IDIUse=1 WtCom= 1.00D+00 WtEn= 0.00D+00
 Coeff-Com:  0.143D-04-0.126D-03-0.494D-03-0.201D-02 0.327D-02 0.133D-01
 Coeff-Com:  0.513D-01 0.406D+00 0.529D+00
 Coeff:      0.143D-04-0.126D-03-0.494D-03-0.201D-02 0.327D-02 0.133D-01
 Coeff:      0.513D-01 0.406D+00 0.529D+00
 Gap=     0.245 Goal=   None    Shift=    0.000
 RMSDP=1.97D-06 MaxDP=3.31D-04 DE=-3.23D-07 OVMax= 9.54D-05

 Cycle  10  Pass 1  IDiag  1:
 RMSU=  1.19D-06    CP:  8.76D-01  4.73D-01  9.45D-01  7.28D-01  7.09D-01
                    CP:  7.51D-01  7.27D-01  9.23D-01  7.44D-01
 E= -1730.75104901865     Delta-E=       -0.000000124064 Rises=F Damp=F
 DIIS: error= 2.41D-06 at cycle  10 NSaved=  10.
 NSaved=10 IEnMin=10 EnMin= -1730.75104901865     IErMin=10 ErrMin= 2.41D-06
 ErrMax= 2.41D-06  0.00D+00 EMaxC= 1.00D-01 BMatC= 2.62D-08 BMatP= 1.75D-07
 IDIUse=1 WtCom= 1.00D+00 WtEn= 0.00D+00
 Coeff-Com:  0.330D-04-0.732D-04-0.558D-03-0.216D-02-0.112D-02-0.978D-03
 Coeff-Com:  0.698D-02 0.186D+00 0.338D+00 0.474D+00
 Coeff:      0.330D-04-0.732D-04-0.558D-03-0.216D-02-0.112D-02-0.978D-03
 Coeff:      0.698D-02 0.186D+00 0.338D+00 0.474D+00
 Gap=     0.245 Goal=   None    Shift=    0.000
 RMSDP=8.21D-07 MaxDP=1.63D-04 DE=-1.24D-07 OVMax= 3.12D-05

 Cycle  11  Pass 1  IDiag  1:
 RMSU=  4.98D-07    CP:  8.76D-01  4.73D-01  9.45D-01  7.28D-01  7.09D-01
                    CP:  7.53D-01  7.34D-01  9.28D-01  7.56D-01  6.90D-01
 E= -1730.75104903932     Delta-E=       -0.000000020674 Rises=F Damp=F
 DIIS: error= 3.66D-07 at cycle  11 NSaved=  11.
 NSaved=11 IEnMin=11 EnMin= -1730.75104903932     IErMin=11 ErrMin= 3.66D-07
 ErrMax= 3.66D-07  0.00D+00 EMaxC= 1.00D-01 BMatC= 8.45D-10 BMatP= 2.62D-08
 IDIUse=1 WtCom= 1.00D+00 WtEn= 0.00D+00
 Coeff-Com:  0.120D-04-0.149D-04-0.156D-03-0.634D-03-0.756D-03-0.185D-02
 Coeff-Com: -0.436D-02 0.265D-01 0.658D-01 0.179D+00 0.736D+00
 Coeff:      0.120D-04-0.149D-04-0.156D-03-0.634D-03-0.756D-03-0.185D-02
 Coeff:     -0.436D-02 0.265D-01 0.658D-01 0.179D+00 0.736D+00
 Gap=     0.245 Goal=   None    Shift=    0.000
 RMSDP=2.77D-07 MaxDP=3.50D-05 DE=-2.07D-08 OVMax= 4.46D-06

 Cycle  12  Pass 1  IDiag  1:
 RMSU=  1.98D-07    CP:  8.76D-01  4.73D-01  9.45D-01  7.28D-01  7.09D-01
                    CP:  7.53D-01  7.34D-01  9.36D-01  7.51D-01  7.37D-01
                    CP:  8.96D-01
 E= -1730.75104904008     Delta-E=       -0.000000000753 Rises=F Damp=F
 DIIS: error= 1.48D-07 at cycle  12 NSaved=  12.
 NSaved=12 IEnMin=12 EnMin= -1730.75104904008     IErMin=12 ErrMin= 1.48D-07
 ErrMax= 1.48D-07  0.00D+00 EMaxC= 1.00D-01 BMatC= 1.03D-10 BMatP= 8.45D-10
 IDIUse=1 WtCom= 1.00D+00 WtEn= 0.00D+00
 Coeff-Com:  0.295D-05-0.154D-05-0.238D-04-0.121D-03-0.230D-03-0.717D-03
 Coeff-Com: -0.261D-02-0.213D-02 0.253D-02 0.399D-01 0.329D+00 0.634D+00
 Coeff:      0.295D-05-0.154D-05-0.238D-04-0.121D-03-0.230D-03-0.717D-03
 Coeff:     -0.261D-02-0.213D-02 0.253D-02 0.399D-01 0.329D+00 0.634D+00
 Gap=     0.245 Goal=   None    Shift=    0.000
 RMSDP=7.01D-08 MaxDP=8.56D-06 DE=-7.53D-10 OVMax= 1.50D-06

 Cycle  13  Pass 1  IDiag  1:
 RMSU=  4.98D-08    CP:  8.76D-01  4.73D-01  9.45D-01  7.28D-01  7.09D-01
                    CP:  7.52D-01  7.33D-01  9.37D-01  7.53D-01  7.43D-01
                    CP:  9.28D-01  8.48D-01
 E= -1730.75104904011     Delta-E=       -0.000000000035 Rises=F Damp=F
 DIIS: error= 6.87D-08 at cycle  13 NSaved=  13.
 NSaved=13 IEnMin=13 EnMin= -1730.75104904011     IErMin=13 ErrMin= 6.87D-08
 ErrMax= 6.87D-08  0.00D+00 EMaxC= 1.00D-01 BMatC= 2.63D-11 BMatP= 1.03D-10
 IDIUse=1 WtCom= 1.00D+00 WtEn= 0.00D+00
 Coeff-Com:  0.236D-06 0.882D-06 0.754D-05 0.112D-04-0.328D-04-0.174D-03
 Coeff-Com: -0.101D-02-0.475D-02-0.749D-02-0.879D-03 0.991D-01 0.387D+00
 Coeff-Com:  0.528D+00
 Coeff:      0.236D-06 0.882D-06 0.754D-05 0.112D-04-0.328D-04-0.174D-03
 Coeff:     -0.101D-02-0.475D-02-0.749D-02-0.879D-03 0.991D-01 0.387D+00
 Coeff:      0.528D+00
 Gap=     0.245 Goal=   None    Shift=    0.000
 RMSDP=2.80D-08 MaxDP=2.80D-06 DE=-3.46D-11 OVMax= 8.80D-07

 Cycle  14  Pass 1  IDiag  1:
 RMSU=  1.95D-08    CP:  8.76D-01  4.73D-01  9.45D-01  7.28D-01  7.09D-01
                    CP:  7.52D-01  7.33D-01  9.36D-01  7.55D-01  7.47D-01
                    CP:  9.46D-01  8.25D-01  7.45D-01
 E= -1730.75104904008     Delta-E=        0.000000000034 Rises=F Damp=F
 DIIS: error= 3.24D-08 at cycle  14 NSaved=  14.
 NSaved=14 IEnMin=13 EnMin= -1730.75104904011     IErMin=14 ErrMin= 3.24D-08
 ErrMax= 3.24D-08  0.00D+00 EMaxC= 1.00D-01 BMatC= 2.83D-12 BMatP= 2.63D-11
 IDIUse=1 WtCom= 1.00D+00 WtEn= 0.00D+00
 Coeff-Com: -0.169D-06 0.599D-06 0.769D-05 0.207D-04 0.891D-05-0.152D-04
 Coeff-Com: -0.294D-03-0.256D-02-0.480D-02-0.521D-02 0.196D-01 0.152D+00
 Coeff-Com:  0.307D+00 0.534D+00
 Coeff:     -0.169D-06 0.599D-06 0.769D-05 0.207D-04 0.891D-05-0.152D-04
 Coeff:     -0.294D-03-0.256D-02-0.480D-02-0.521D-02 0.196D-01 0.152D+00
 Coeff:      0.307D+00 0.534D+00
 Gap=     0.245 Goal=   None    Shift=    0.000
 RMSDP=1.13D-08 MaxDP=2.06D-06 DE= 3.37D-11 OVMax= 2.71D-07

 Cycle  15  Pass 1  IDiag  1:
 RMSU=  6.69D-09    CP:  8.76D-01  4.73D-01  9.45D-01  7.28D-01  7.09D-01
                    CP:  7.52D-01  7.33D-01  9.36D-01  7.54D-01  7.48D-01
                    CP:  9.48D-01  8.57D-01  7.52D-01  8.28D-01
 E= -1730.75104904015     Delta-E=       -0.000000000076 Rises=F Damp=F
 DIIS: error= 7.32D-09 at cycle  15 NSaved=  15.
 NSaved=15 IEnMin=15 EnMin= -1730.75104904015     IErMin=15 ErrMin= 7.32D-09
 ErrMax= 7.32D-09  0.00D+00 EMaxC= 1.00D-01 BMatC= 3.46D-13 BMatP= 2.83D-12
 IDIUse=1 WtCom= 1.00D+00 WtEn= 0.00D+00
 Coeff-Com: -0.932D-07 0.170D-06 0.344D-05 0.976D-05 0.917D-05 0.140D-04
 Coeff-Com: -0.334D-04-0.815D-03-0.175D-02-0.285D-02-0.242D-02 0.356D-01
 Coeff-Com:  0.106D+00 0.308D+00 0.558D+00
 Coeff:     -0.932D-07 0.170D-06 0.344D-05 0.976D-05 0.917D-05 0.140D-04
 Coeff:     -0.334D-04-0.815D-03-0.175D-02-0.285D-02-0.242D-02 0.356D-01
 Coeff:      0.106D+00 0.308D+00 0.558D+00
 Gap=     0.245 Goal=   None    Shift=    0.000
 RMSDP=3.61D-09 MaxDP=3.40D-07 DE=-7.64D-11 OVMax= 9.06D-08

 SCF Done:  E(RPBE1PBE) =  -1730.75104904     A.U. after   15 cycles
            NFock= 15  Conv=0.36D-08     -V/T= 2.0091
 KE= 1.715207899730D+03 PE=-1.228349167949D+04 EE= 4.713180121105D+03
 Leave Link  502 at Mon Feb 14 17:57:57 2022, MaxMem=  8589934592 cpu:            4033.4 elap:             168.5
 (Enter /share/apps/g16.b01_avx2/g16/l601.exe)
 Copying SCF densities to generalized density rwf, IOpCl= 0 IROHF=0.

 **********************************************************************

            Population analysis using the SCF Density.

 **********************************************************************

 Orbital symmetries:
       Occupied  (A) (A) (A) (A) (A) (A) (A) (A) (A) (A) (A) (A)
                 (A) (A) (A) (A) (A) (A) (A) (A) (A) (A) (A) (A)
                 (A) (A) (A) (A) (A) (A) (A) (A) (A) (A) (A) (A)
                 (A) (A) (A) (A) (A) (A) (A) (A) (A) (A) (A) (A)
                 (A) (A) (A) (A) (A) (A) (A) (A) (A) (A) (A) (A)
                 (A) (A) (A) (A) (A) (A) (A) (A) (A) (A) (A) (A)
                 (A) (A) (A) (A) (A) (A) (A) (A) (A) (A) (A) (A)
                 (A) (A) (A) (A) (A) (A) (A) (A) (A) (A) (A) (A)
                 (A) (A) (A) (A) (A) (A) (A) (A) (A) (A) (A) (A)
                 (A) (A) (A) (A) (A) (A) (A) (A) (A) (A) (A) (A)
                 (A) (A) (A) (A) (A) (A) (A) (A) (A) (A) (A) (A)
                 (A) (A)
       Virtual   (A) (A) (A) (A) (A) (A) (A) (A) (A) (A) (A) (A)
                 (A) (A) (A) (A) (A) (A) (A) (A) (A) (A) (A) (A)
                 (A) (A) (A) (A) (A) (A) (A) (A) (A) (A) (A) (A)
                 (A) (A) (A) (A) (A) (A) (A) (A) (A) (A) (A) (A)
                 (A) (A) (A) (A) (A) (A) (A) (A) (A) (A) (A) (A)
                 (A) (A) (A) (A) (A) (A) (A) (A) (A) (A) (A) (A)
                 (A) (A) (A) (A) (A) (A) (A) (A) (A) (A) (A) (A)
                 (A) (A) (A) (A) (A) (A) (A) (A) (A) (A) (A) (A)
                 (A) (A) (A) (A) (A) (A) (A) (A) (A) (A) (A) (A)
                 (A) (A) (A) (A) (A) (A) (A) (A) (A) (A) (A) (A)
                 (A) (A) (A) (A) (A) (A) (A) (A) (A) (A) (A) (A)
                 (A) (A) (A) (A) (A) (A) (A) (A) (A) (A) (A) (A)
                 (A) (A) (A) (A) (A) (A) (A) (A) (A) (A) (A) (A)
                 (A) (A) (A) (A) (A) (A) (A) (A) (A) (A) (A) (A)
                 (A) (A) (A) (A) (A) (A) (A) (A) (A) (A) (A) (A)
                 (A) (A) (A) (A) (A) (A) (A) (A) (A) (A) (A) (A)
                 (A) (A) (A) (A) (A) (A) (A) (A) (A) (A) (A) (A)
                 (A) (A) (A) (A) (A) (A) (A) (A) (A) (A) (A) (A)
                 (A) (A) (A) (A) (A) (A) (A) (A) (A) (A) (A) (A)
                 (A) (A) (A) (A) (A) (A) (A) (A) (A) (A) (A) (A)
                 (A) (A) (A) (A) (A) (A) (A) (A) (A) (A) (A) (A)
                 (A) (A) (A) (A) (A) (A) (A) (A) (A) (A) (A) (A)
                 (A) (A) (A) (A) (A) (A) (A) (A) (A) (A) (A) (A)
                 (A) (A) (A) (A) (A) (A) (A) (A) (A) (A) (A) (A)
                 (A) (A) (A) (A) (A) (A) (A) (A) (A) (A) (A) (A)
                 (A) (A) (A) (A) (A) (A) (A) (A) (A) (A) (A) (A)
                 (A) (A) (A) (A) (A) (A) (A) (A) (A) (A) (A) (A)
                 (A) (A) (A) (A) (A) (A) (A) (A) (A) (A) (A) (A)
                 (A) (A) (A) (A) (A) (A) (A) (A) (A) (A) (A) (A)
                 (A) (A) (A) (A) (A) (A) (A) (A) (A) (A) (A) (A)
                 (A) (A) (A) (A) (A) (A) (A) (A) (A) (A) (A) (A)
                 (A) (A) (A) (A) (A) (A) (A) (A) (A) (A) (A) (A)
                 (A) (A) (A) (A) (A) (A) (A) (A) (A) (A) (A) (A)
                 (A) (A) (A) (A) (A) (A) (A) (A) (A) (A) (A) (A)
                 (A) (A) (A) (A) (A) (A) (A) (A) (A) (A) (A) (A)
                 (A) (A) (A) (A) (A) (A) (A) (A) (A) (A) (A) (A)
                 (A) (A) (A) (A) (A) (A) (A) (A) (A) (A) (A) (A)
                 (A) (A) (A) (A) (A) (A) (A) (A) (A) (A) (A) (A)
                 (A) (A) (A) (A) (A) (A) (A) (A) (A) (A) (A) (A)
                 (A) (A) (A) (A) (A) (A) (A) (A) (A) (A) (A) (A)
                 (A) (A) (A) (A) (A) (A) (A) (A) (A) (A) (A) (A)
                 (A) (A) (A) (A) (A) (A) (A) (A) (A) (A) (A) (A)
                 (A) (A) (A) (A) (A) (A) (A) (A) (A) (A) (A) (A)
                 (A) (A) (A) (A) (A) (A) (A) (A) (A) (A) (A) (A)
                 (A) (A) (A) (A) (A) (A) (A) (A) (A) (A) (A) (A)
                 (A) (A) (A) (A) (A) (A) (A) (A) (A) (A) (A) (A)
                 (A) (A) (A) (A) (A) (A) (A) (A) (A) (A) (A) (A)
                 (A) (A) (A) (A) (A) (A) (A) (A) (A) (A) (A) (A)
                 (A) (A) (A) (A) (A) (A) (A) (A) (A) (A) (A) (A)
                 (A) (A) (A) (A) (A) (A) (A) (A) (A) (A) (A) (A)
                 (A) (A) (A) (A) (A) (A) (A) (A) (A) (A) (A) (A)
                 (A) (A) (A) (A) (A) (A) (A) (A) (A) (A) (A) (A)
                 (A) (A) (A) (A) (A) (A) (A) (A) (A) (A) (A) (A)
                 (A) (A) (A) (A) (A) (A) (A) (A) (A) (A) (A) (A)
                 (A) (A) (A) (A) (A) (A) (A) (A) (A) (A) (A) (A)
                 (A) (A) (A) (A) (A) (A) (A) (A) (A) (A) (A) (A)
                 (A) (A) (A) (A) (A) (A) (A) (A) (A) (A) (A) (A)
                 (A) (A) (A) (A) (A) (A) (A) (A) (A) (A) (A) (A)
                 (A) (A) (A) (A) (A) (A) (A) (A) (A) (A) (A) (A)
                 (A) (A) (A) (A) (A) (A) (A) (A)
 The electronic state is 1-A.
 Alpha  occ. eigenvalues --  -19.23526 -19.22482 -19.22000 -19.21824 -19.20854
 Alpha  occ. eigenvalues --  -19.20476 -19.20043 -14.46993 -14.45036 -14.44779
 Alpha  occ. eigenvalues --  -14.44689 -14.43525 -14.43420 -14.43137 -10.37344
 Alpha  occ. eigenvalues --  -10.36452 -10.36170 -10.35616 -10.34801 -10.34347
 Alpha  occ. eigenvalues --  -10.34306 -10.31248 -10.30949 -10.29835 -10.29792
 Alpha  occ. eigenvalues --  -10.29245 -10.29012 -10.26619 -10.25805 -10.24876
 Alpha  occ. eigenvalues --  -10.24603 -10.24223 -10.23892 -10.23790 -10.22909
 Alpha  occ. eigenvalues --   -1.10377  -1.09042  -1.08877  -1.08119  -1.07524
 Alpha  occ. eigenvalues --   -1.07046  -1.06767  -0.98728  -0.97250  -0.97139
 Alpha  occ. eigenvalues --   -0.97010  -0.96703  -0.95203  -0.95026  -0.83916
 Alpha  occ. eigenvalues --   -0.82621  -0.81756  -0.80213  -0.79322  -0.77866
 Alpha  occ. eigenvalues --   -0.76531  -0.73326  -0.70970  -0.70241  -0.69640
 Alpha  occ. eigenvalues --   -0.68628  -0.67416  -0.65338  -0.64361  -0.62581
 Alpha  occ. eigenvalues --   -0.61997  -0.61432  -0.60997  -0.60224  -0.59701
 Alpha  occ. eigenvalues --   -0.58684  -0.57784  -0.56034  -0.53708  -0.53085
 Alpha  occ. eigenvalues --   -0.52408  -0.52101  -0.51304  -0.50503  -0.50115
 Alpha  occ. eigenvalues --   -0.49521  -0.49475  -0.48818  -0.47926  -0.47868
 Alpha  occ. eigenvalues --   -0.47722  -0.47115  -0.46316  -0.46137  -0.45977
 Alpha  occ. eigenvalues --   -0.45795  -0.45173  -0.45110  -0.44552  -0.44206
 Alpha  occ. eigenvalues --   -0.43855  -0.43793  -0.43535  -0.42816  -0.42520
 Alpha  occ. eigenvalues --   -0.42352  -0.41745  -0.41086  -0.40584  -0.40504
 Alpha  occ. eigenvalues --   -0.40393  -0.40259  -0.40114  -0.40083  -0.39697
 Alpha  occ. eigenvalues --   -0.39327  -0.39141  -0.38964  -0.38777  -0.38599
 Alpha  occ. eigenvalues --   -0.38316  -0.37565  -0.37421  -0.37200  -0.36532
 Alpha  occ. eigenvalues --   -0.32229  -0.30846  -0.30392  -0.29908  -0.29487
 Alpha  occ. eigenvalues --   -0.29259  -0.28745  -0.28113  -0.28076  -0.27751
 Alpha  occ. eigenvalues --   -0.27387  -0.27240  -0.26804  -0.26350
 Alpha virt. eigenvalues --   -0.01841  -0.00849  -0.00326  -0.00162   0.00114
 Alpha virt. eigenvalues --    0.00553   0.00931   0.01005   0.01252   0.01642
 Alpha virt. eigenvalues --    0.02032   0.02374   0.02489   0.02904   0.03018
 Alpha virt. eigenvalues --    0.03386   0.03555   0.03917   0.04219   0.04892
 Alpha virt. eigenvalues --    0.04969   0.05070   0.05332   0.05640   0.05713
 Alpha virt. eigenvalues --    0.05967   0.06307   0.06606   0.06871   0.07221
 Alpha virt. eigenvalues --    0.07511   0.07714   0.07883   0.08304   0.08363
 Alpha virt. eigenvalues --    0.08649   0.09017   0.09137   0.09449   0.09666
 Alpha virt. eigenvalues --    0.09920   0.10034   0.10384   0.10482   0.10795
 Alpha virt. eigenvalues --    0.11019   0.11407   0.11616   0.11639   0.12015
 Alpha virt. eigenvalues --    0.12126   0.12603   0.12744   0.12780   0.13201
 Alpha virt. eigenvalues --    0.13417   0.13589   0.13948   0.14195   0.14538
 Alpha virt. eigenvalues --    0.14605   0.14797   0.14974   0.15298   0.15434
 Alpha virt. eigenvalues --    0.15711   0.15894   0.16027   0.16373   0.16525
 Alpha virt. eigenvalues --    0.16589   0.17107   0.17506   0.17598   0.17701
 Alpha virt. eigenvalues --    0.17852   0.17987   0.18088   0.18479   0.18578
 Alpha virt. eigenvalues --    0.19090   0.19247   0.19427   0.19630   0.19945
 Alpha virt. eigenvalues --    0.20076   0.20329   0.20502   0.20705   0.20764
 Alpha virt. eigenvalues --    0.21009   0.21190   0.21607   0.21767   0.21956
 Alpha virt. eigenvalues --    0.21985   0.22326   0.22430   0.22605   0.22774
 Alpha virt. eigenvalues --    0.22822   0.22965   0.23338   0.23427   0.23558
 Alpha virt. eigenvalues --    0.23835   0.23977   0.24385   0.24689   0.25064
 Alpha virt. eigenvalues --    0.25097   0.25216   0.25415   0.25516   0.25759
 Alpha virt. eigenvalues --    0.26091   0.26233   0.26627   0.26700   0.26968
 Alpha virt. eigenvalues --    0.27178   0.27368   0.27454   0.27819   0.28108
 Alpha virt. eigenvalues --    0.28248   0.28531   0.28623   0.29027   0.29165
 Alpha virt. eigenvalues --    0.29381   0.29625   0.29824   0.30301   0.30486
 Alpha virt. eigenvalues --    0.30583   0.30853   0.31166   0.31624   0.31684
 Alpha virt. eigenvalues --    0.31830   0.31948   0.32065   0.32490   0.32831
 Alpha virt. eigenvalues --    0.33106   0.33175   0.33666   0.33862   0.33915
 Alpha virt. eigenvalues --    0.34261   0.34595   0.34962   0.35072   0.35352
 Alpha virt. eigenvalues --    0.35525   0.35712   0.35802   0.36143   0.36594
 Alpha virt. eigenvalues --    0.36712   0.36986   0.37080   0.37325   0.37698
 Alpha virt. eigenvalues --    0.37887   0.38361   0.38548   0.38761   0.38932
 Alpha virt. eigenvalues --    0.39139   0.39345   0.39524   0.40044   0.40662
 Alpha virt. eigenvalues --    0.41056   0.41133   0.41382   0.41636   0.41991
 Alpha virt. eigenvalues --    0.42188   0.42860   0.43111   0.43375   0.43755
[...]
 268,-0.00000179,-0.00000251,-0.00000047,0.00000122,-0.00000102,-0.0000
 0021,-0.00000246,0.00000040,-0.00000137,0.00000098,0.00000267,0.000000
 57,-0.00000947,0.00000253,0.00000095,0.00000387,0.00000137,0.00000183,
 -0.00000340,0.00000179,0.00000378,0.00000104,-0.00000433,-0.00000317,-
 0.00000197,-0.00000140,0.00000113,0.00001920,-0.00001733,0.00000152,-0
 .00000864,0.00000516,-0.00000201,-0.00002061,0.00002691,0.00000558,0.0
 0000760,-0.00002762,-0.00000429,0.00000004,-0.00000066,-0.00000032,-0.
 00002848,0.00002934,-0.00000886,0.00002844,-0.00003056,0.00000321,0.00
 002964,-0.00004952,0.00000652,0.00001083,0.00003194,-0.00000396,-0.000
 05033,0.00005289,0.00002548,-0.00043447,0.00014635,0.00021678,0.000047
 73,-0.00033316,-0.00024780,0.00013689,-0.00023196,0.00028445,-0.000613
 82,0.00045313,-0.00063284,0.00000328,0.00000391,-0.00000024,-0.0000100
 7,-0.00001083,-0.00004304,0.00068531,-0.00506484,0.00189066,0.00001000
 ,0.00000209,0.00000033,-0.00000118,-0.00000019,-0.00000144,-0.00000126
 ,0.00000143,-0.00000102,0.00000145,-0.00000113,0.00000356,-0.00003788,
 0.00000030,-0.00002679,-0.00000095,-0.00000396,0.00000193,0.00002414,-
 0.00001067,-0.00000197,0.00000016,-0.00000173,0.00004253,-0.00000031,-
 0.00000123,-0.00000041,0.00263738,-0.00005121,-0.00088394,-0.00131898,
 0.00099132,0.00069628,-0.00048639,-0.00005818,0.00039890,0.00006729,0.
 00009987,-0.00000657,0.00000033,0.,0.00000035,0.00000013,0.00000050,-0
 .00000035,0.00000122,-0.00000177,-0.00000109,0.00000066,0.00000010,-0.
 00000002,-0.00000056,0.00000041,0.00000116,-0.00000101,0.00000052,-0.0
 0000021,-0.00000148,0.00003964,-0.00002744,0.00000866,-0.00001587,0.00
 003457,-0.00000968,0.00000978,-0.00000669,-0.00000430,-0.00000476,0.00
 000385,0.00001463,-0.00000912,-0.00000910,-0.00051368,-0.00025407,0.00
 046743,0.00752244,0.13069026,-0.14499093,-0.00909067,-0.14261836,0.151
 69141,-0.00000268,0.00001054,0.00000264,0.00000500,-0.00001254,-0.0000
 0372,0.00000152,-0.00000474,0.00000321,0.00000400,-0.00001730,-0.00000
 997,-0.00000457,0.00001704,0.00000894,-0.00001878,0.00003944,0.0000100
 8,-0.00000417,-0.00000519,0.,0.00001437,-0.00011776,-0.00003725,-0.000
 01207,0.00012563,0.00000328,-0.00001309,0.00002258,0.00001213,0.000104
 98,0.00004688,-0.00005611,-0.00001314,-0.00008659,0.00004255,-0.000168
 64,-0.00004318,0.00007161,0.00006741,0.00002969,-0.00001541,0.00000112
 ,-0.00000223,-0.00000256,-0.00000115,-0.00000092,0.00000050,-0.0000225
 3,0.00006040,-0.00006467,-0.00000112,0.00000120,-0.00000033,-0.0000011
 6,0.00000313,0.00000058,0.00000228,-0.00000194,-0.00000002,-0.00000104
 ,-0.00000401,0.00000203,0.00000971,-0.00001171,0.00000489,-0.00000035,
 -0.00000255,-0.00000833,0.00000144,0.00000143,-0.00000538,-0.00000062,
 0.00000731,0.00000307,0.00001257,-0.00000452,-0.00001479,-0.00006678,0
 .00003360,-0.00000526,0.00002057,-0.00000528,0.00000704,0.00006763,-0.
 00004483,-0.00001523,-0.00002967,0.00004191,0.00000783,-0.00000799,0.0
 0000058,0.00000239,0.00014064,0.00015981,0.00011076,-0.00006552,-0.000
 09078,-0.00004983,-0.00020684,-0.00013608,-0.00006790,0.00004310,-0.00
 004787,0.00001187,-0.00004810,0.00007399,0.00044796,0.00079245,-0.0016
 5886,-0.00223630,-0.00011425,0.00093888,0.00058547,-0.00666535,0.00395
 023,0.00138899,0.00006541,0.00032588,0.00051014,0.00000004,-0.00000931
 ,-0.00000070,0.00002310,0.00003231,0.00000512,-0.01845198,-0.01696442,
 -0.00785094,-0.00002537,0.00000258,0.00000299,0.00000380,-0.00000132,0
 .00000128,0.00000294,-0.00000661,0.00000542,-0.00000486,0.00000319,-0.
 00001001,-0.00017170,-0.00007363,-0.00010967,-0.00001463,-0.00003760,0
 .00006812,0.00000363,0.00000904,0.00000920,0.00001160,0.00001528,-0.00
 001416,0.00000184,0.00000064,0.00000055,-0.00143879,-0.00033809,0.0010
 1250,0.00143028,-0.00007551,-0.00026580,0.00045604,-0.00002396,-0.0001
 5535,-0.00016722,-0.00028512,0.00006216,-0.00000144,-0.00000018,-0.000
 00088,-0.00000086,-0.00000126,0.00000111,0.00000571,-0.00000041,-0.000
 00217,0.00000017,0.00000083,0.00000021,-0.00000035,-0.00000103,0.00000
 016,-0.00000088,-0.00000090,-0.00000029,0.00000004,-0.00003096,0.00000
 462,-0.00001142,0.00001123,-0.00003294,0.00000777,-0.00000457,0.000007
 88,0.00001670,0.00000366,0.00000517,0.00000526,0.00001343,-0.00000290,
 0.00065817,-0.00040422,0.00052414,-0.22060781,-0.12177357,-0.05965805,
 0.00055630,0.00118615,0.00038697,0.23965648,-0.00001070,-0.00000358,0.
 00000338,0.00000072,0.00000155,-0.00000003,0.00000609,0.00000814,0.000
 00376,0.00001380,0.00000511,-0.00000531,-0.00000887,-0.00000232,0.0000
 0200,-0.00002459,-0.00000319,-0.00000322,0.00000626,-0.00000295,-0.000
 00231,0.00003192,0.00001231,0.00001154,-0.00001974,-0.00001856,0.00000
 255,0.00002575,-0.00001973,-0.00001562,-0.00007572,-0.00000654,0.00003
 261,0.00002514,0.00002555,-0.00001018,0.00012154,-0.00002015,-0.000072
 02,-0.00005690,0.00003838,0.00002593,0.00000005,0.00000001,-0.00000032
 ,-0.00000093,0.00000368,0.00000072,0.00000966,-0.00002617,0.00010271,-
 0.00000224,-0.00000240,-0.00000083,0.00000099,0.00000023,0.00000007,-0
 .00000122,-0.00000056,-0.00000124,0.00000024,0.00000121,0.00000135,-0.
 00000903,0.00000435,0.00000102,0.00000169,-0.00000058,0.00000021,-0.00
 000421,0.00000118,0.00000435,0.00000223,-0.00000267,-0.00000414,0.0000
 0351,0.00000814,0.00000290,-0.00000208,-0.00000405,0.00000347,0.000000
 39,-0.00000023,-0.00000128,0.00000664,0.00000479,-0.00000084,-0.000003
 78,-0.00000444,0.00000069,-0.00000139,-0.00000132,-0.00000017,-0.00000
 066,-0.00004251,-0.00001892,-0.00000264,0.00002073,0.00000992,0.000035
 52,0.00006542,0.00001295,-0.00000918,0.00001304,0.00000052,0.00015004,
 -0.00004941,-0.00032640,0.00063343,0.00112980,0.00081277,-0.00017027,-
 0.00029313,-0.00005210,0.00475888,-0.00177767,-0.00047109,0.00047359,-
 0.00027014,0.00026019,0.00000019,0.00000208,-0.00000041,-0.00001178,-0
 .00001190,0.00001786,0.01352829,0.01073201,0.00564894,0.00000399,-0.00
 000043,-0.00000042,0.00000090,0.00000041,0.00000056,-0.00000035,-0.000
 00055,-0.00000049,-0.00000032,0.00000021,0.00000206,0.00011868,0.00004
 123,0.00006197,0.00000143,0.00002604,-0.00004015,-0.00001109,0.0000036
 0,-0.00000454,-0.00000181,0.00000927,-0.00001671,0.00000021,-0.0000003
 2,-0.00000020,0.00067358,0.00000718,0.00045477,0.00004906,-0.00052501,
 0.00034148,-0.00025838,0.00024506,-0.00006792,0.00009258,0.00010924,-0
 .00007781,0.00000010,0.00000004,-0.00000024,0.00000011,0.00000022,0.00
 000025,0.00000387,-0.00000177,-0.00000237,0.00000075,0.00000059,-0.000
 00006,-0.00000086,-0.00000033,0.00000116,-0.00000129,-0.00000001,-0.00
 000020,-0.00000610,0.00002453,-0.00000360,0.00000369,-0.00001009,0.000
 01968,-0.00000329,0.00000679,-0.00001068,-0.00000483,-0.00000767,-0.00
 000260,-0.00000492,0.00000395,-0.00000460,-0.00057424,0.00093671,-0.00
 005427,-0.12571573,-0.13571190,-0.04329829,-0.01902226,-0.01260624,-0.
 00868142,0.13191030,0.14321914,0.00000660,0.00000357,-0.00000270,0.000
 00015,-0.00000268,0.,-0.00000417,-0.00000640,-0.00000199,-0.00000926,-
 0.00000447,0.00000382,0.00000534,0.00000290,-0.00000208,0.00001805,0.0
 0000254,0.00000080,-0.00000389,0.00000146,0.00000297,-0.00002181,-0.00
 000602,-0.00000708,0.00001762,0.00001103,-0.00000267,-0.00002643,0.000
 01489,0.00001901,0.00006738,-0.00000291,-0.00003104,-0.00002934,-0.000
 01023,0.00000389,-0.00008948,0.00003979,0.00005393,0.00003880,-0.00003
 468,-0.00002693,-0.00000026,-0.00000022,-0.00000015,0.00000221,-0.0000
 0352,-0.00000175,-0.00004756,0.00006420,-0.00005193,0.00000174,0.00000
 159,0.00000049,-0.00000089,0.00000043,0.00000021,0.00000125,0.00000003
 ,0.00000084,-0.00000034,-0.00000153,-0.00000085,0.00000845,-0.00000329
 ,-0.00000040,0.00000037,0.00000329,0.00000149,0.00000226,-0.00000115,-
 0.00000498,-0.00000116,-0.00000185,0.00000405,-0.00000111,-0.00000043,
 -0.00000002,-0.00000221,0.00000399,-0.00000072,0.00000142,-0.00000126,
 0.00000025,0.00000221,-0.00000770,-0.00000056,-0.00000015,0.00000823,0
 .00000022,0.00000062,0.00000044,0.,-0.00000115,-0.00001850,-0.00000792
 ,-0.00000594,0.00001811,0.00000788,-0.00000432,0.00000292,0.00000566,-
 0.00000292,-0.00001039,0.00000625,-0.00000580,0.00004642,-0.00016422,0
 .00004103,0.00016482,0.00059627,-0.00011332,-0.00000927,-0.00014202,0.
 00133857,-0.00069006,0.00097933,0.00054064,0.00025764,-0.00032469,-0.0
 0000159,-0.00000167,0.00000090,0.00000080,0.00000573,0.00000542,0.0034
 1399,0.00237218,-0.00101314,-0.00000234,-0.00000152,-0.00000108,0.0000
 0138,0.00000122,0.00000089,0.00000092,-0.00000159,-0.00000061,-0.00000
 083,0.00000019,-0.00000008,0.00002718,0.00003217,0.00002714,0.00000504
 ,0.00000476,-0.00001346,0.00000265,-0.00000461,0.00000469,-0.00000835,
 -0.00000508,0.00000342,0.00000002,0.00000047,0.00000019,-0.00179628,0.
 00007850,0.00122887,0.00139374,0.00008100,-0.00018285,0.00040970,-0.00
 022256,-0.00047888,0.00003535,-0.00008393,0.00005338,-0.00000003,0.000
 00004,-0.00000009,0.00000016,-0.00000014,0.00000007,-0.00000169,0.0000
 0101,0.00000172,-0.00000031,-0.00000034,0.00000026,0.00000069,0.000000
 26,-0.00000083,0.00000067,-0.00000022,-0.00000012,0.00000203,-0.000020
 60,0.00002059,-0.00001277,-0.00000122,-0.00003394,0.00000816,-0.000005
 45,0.00000662,0.00001493,0.00000275,-0.00000375,0.00000202,-0.00000367
 ,0.00002295,0.00011205,0.00043068,0.00014410,-0.06029840,-0.04221103,-
 0.06454626,0.01655651,0.01010306,0.00528966,0.06342840,0.04651579,0.06
 620912,0.00000014,-0.00000462,-0.00000125,-0.00000195,0.00000564,0.000
 00203,0.00000242,0.00000321,0.00000017,-0.00000054,0.00000758,0.000003
 58,0.00000080,-0.00000728,-0.00000374,0.00000016,-0.00000994,-0.000003
 64,0.00000149,0.00000079,0.00000089,0.00000411,0.00002821,0.00001113,-
 0.00000449,-0.00003202,-0.00001099,0.00000822,-0.00000722,-0.00000355,
 -0.00001821,-0.00000034,-0.00001048,0.00001116,0.00000893,0.00001104,0
 .00002357,-0.00000458,-0.00000397,-0.00000986,0.00000407,0.00000278,-0
 .00000020,0.00000127,0.00000143,-0.00000114,0.00000086,-0.00000052,0.0
 0001691,-0.00006715,-0.00003416,-0.00000078,-0.00000078,0.00000060,0.0
 0000048,-0.00000125,-0.00000045,-0.00000130,0.00000080,-0.00000042,0.0
 0000091,0.00000170,-0.00000055,-0.00000368,-0.00000190,0.00000249,0.00
 000356,0.00000184,-0.00000015,-0.00000144,0.00000155,-0.00000018,0.000
 00011,-0.00000295,-0.00000137,-0.00000535,-0.00000331,0.00000624,0.000
 02518,-0.00001109,-0.00000292,-0.00000751,0.00000260,-0.00000092,-0.00
 002794,0.00001934,0.00000702,0.00001172,-0.00001892,-0.00000470,0.0000
 0281,0.00000014,-0.00000068,-0.00002987,-0.00000498,-0.00000707,0.0000
 2433,-0.00000699,-0.00000359,0.00003026,-0.00001611,-0.00001778,0.0000
 1474,0.00002233,0.00001672,-0.00002254,0.00004930,-0.00002887,-0.00064
 096,0.00073835,0.00069825,-0.00041830,-0.00073725,-0.00054935,0.003322
 57,0.00102240,0.00060935,-0.00099743,-0.00093170,-0.00009318,0.0000018
 4,0.00000329,-0.00000063,-0.00000802,-0.00004304,-0.00002911,-0.006101
 04,0.00916042,0.02895347,0.00000669,-0.00000094,0.00000020,-0.00000381
 ,-0.00000238,-0.00000218,-0.00000223,0.00000565,0.00000088,0.00000314,
 -0.00000067,0.00000142,0.00001988,-0.00000610,-0.00000260,0.00000334,0
 .00000162,-0.00001005,0.00001306,0.00000328,-0.00001365,0.00000212,-0.
 00000154,0.00001418,-0.00000073,-0.00000046,-0.00000010,-0.00014676,-0
 .00096347,0.00109308,0.00022255,-0.00019569,-0.00086501,0.00004625,-0.
 00003269,-0.00007934,0.00023441,-0.00013573,0.00013070,0.00000042,0.00
 000006,0.00000047,0.00000025,0.00000040,-0.00000055,-0.00000218,-0.000
 00006,0.00000078,-0.00000004,-0.00000033,-0.00000012,0.00000010,0.0000
 0042,0.,0.00000024,0.00000042,0.00000015,0.00000618,0.00003022,-0.0000
 0824,0.00001118,0.00001323,-0.00000605,-0.00000122,-0.00000811,-0.0000
 1792,-0.00001590,0.00000238,0.00000478,-0.00001027,0.00001554,-0.00001
 197,-0.00422319,0.00290606,-0.00043507,-0.05138828,0.01004703,0.034081
 49,-0.00182330,0.00022777,0.00094623,0.00417288,-0.00667440,-0.0250169
 7,0.05767028,-0.00000660,-0.00000815,0.00000210,-0.00000193,0.00000794
 ,0.00000145,0.00000319,0.00000859,0.00000055,0.00000951,0.00001157,-0.
 00000056,-0.00000433,-0.00000948,-0.00000103,-0.00001162,-0.00001700,-
 0.00000431,0.00000555,0.00000052,-0.00000381,0.00001594,0.00004904,0.0
 0002124,-0.00001327,-0.00005913,0.00000771,0.00003306,-0.00002294,-0.0
 0002600,-0.00011732,-0.00001841,0.00007081,0.00003528,0.00004967,-0.00
 003657,0.00016827,-0.00002628,-0.00009240,-0.00006706,0.00003082,0.000
 04052,0.00000004,0.00000106,0.00000108,-0.00000218,0.00000399,0.000001
 76,0.00000368,-0.00012436,0.00011003,-0.00000050,-0.00000229,-0.000000
 83,0.00000144,-0.00000163,-0.00000031,-0.00000214,0.00000066,-0.000000
 78,0.00000055,0.00000323,0.00000013,-0.00001275,0.00000995,-0.00000427
 ,-0.00000286,-0.00000316,0.00000336,-0.00000200,-0.00000029,0.00000892
 ,0.00000092,0.00000071,-0.00000495,-0.00000364,0.00000050,0.00000294,0
 .00002531,-0.00001910,0.00000434,-0.00001065,0.00000472,-0.00000325,-0
 .00002651,0.00002621,0.00000633,0.00001073,-0.00002645,-0.00000284,0.0
 0000158,-0.00000058,-0.00000089,-0.00006157,-0.00002011,-0.00003534,0.
 00003867,0.00000753,0.00001308,0.00007451,0.00001098,0.00002679,-0.000
 01674,0.00003081,-0.00002171,-0.00004013,0.00003679,-0.00004398,-0.000
 05492,-0.00017176,-0.00006435,0.00038119,-0.00003170,0.00016445,-0.001
 20185,0.00035766,0.00088468,-0.00004267,0.00054522,0.00003062,0.000001
 88,0.00000501,0.00000005,-0.00000324,-0.00001186,-0.00001990,0.0017126
 0,-0.00669586,-0.01874036,0.00001370,0.00000221,0.00000067,-0.00000158
 ,0.00000082,-0.00000120,-0.00000109,0.00000171,-0.00000321,0.00000191,
 -0.00000188,0.00000478,0.00003623,-0.00000654,0.00001467,-0.00000457,0
 .00001337,-0.00001064,0.00000007,-0.00000527,-0.00000276,0.00000265,0.
 00000534,0.00001515,-0.00000065,-0.00000095,-0.00000047,0.00225233,-0.
 00002541,-0.00319259,-0.00140038,0.00048500,0.00181413,-0.00110557,0.0
 0042160,0.00072115,-0.00015341,0.00034738,-0.00021171,0.00000057,-0.00
 000001,0.00000039,0.00000013,0.00000058,-0.00000045,-0.00000009,-0.000
 00109,-0.00000109,0.00000032,0.00000005,-0.00000030,-0.00000062,0.0000
 0019,0.00000092,-0.00000048,0.00000060,0.00000012,0.00000782,0.0000217
 2,-0.00003043,0.00001007,-0.00002600,0.00005388,-0.00001445,0.00001796
 ,0.00000051,-0.00000738,-0.00000753,0.00000334,0.00001508,-0.00000087,
 -0.00002587,0.00333614,-0.00149175,0.00066086,0.01088655,-0.06692876,-
 0.07000663,-0.00354077,0.00915293,0.02511067,0.00325273,-0.00528340,-0
 .01689796,-0.01440267,0.06937541,0.00000998,0.00000654,-0.00000049,0.0
 0000033,-0.00000547,-0.00000261,-0.00000816,-0.00000821,-0.00000445,-0
 .00001157,-0.00001159,0.00000041,0.00000758,0.00000814,0.00000314,0.00
 002217,0.00000587,0.00000686,-0.00000591,0.00000246,-0.00000016,-0.000
 03156,-0.00002227,-0.00001573,0.00001949,0.00002764,0.00000597,-0.0000
 1975,0.00001391,0.00001055,0.00005153,0.00000319,-0.00000659,-0.000026
 23,-0.00001703,-0.00000377,-0.00007881,0.00000663,0.00004458,0.0000394
 3,-0.00003265,-0.00001556,-0.00000010,-0.00000101,-0.00000084,0.000001
 56,-0.00000332,0.00000050,0.00003154,0.00004853,-0.00007746,0.00000233
 ,0.00000203,0.00000029,-0.00000092,0.00000027,0.00000012,0.00000215,0.
 00000006,0.00000131,-0.00000117,-0.00000177,-0.00000088,0.00000741,-0.
 00000047,-0.00000188,-0.00000474,-0.00000222,-0.00000146,0.00000366,-0
 .00000178,-0.00000231,-0.00000110,0.00000513,0.00000259,0.00000110,0.0
 0000175,-0.00000255,-0.00000759,0.00000864,0.00000285,0.00000358,-0.00
 000309,-0.00000132,0.00000866,-0.00001732,-0.00000385,-0.00000230,0.00
 001814,0.00000423,0.00000101,0.00000058,-0.00000006,0.00000130,-0.0000
 4403,-0.00001565,-0.00001383,0.00003452,0.00001455,0.00000051,0.000037
 87,0.00002223,-0.00000584,-0.00001779,0.00000322,0.00000774,-0.0000262
 4,-0.00012301,0.00044342,0.00007498,0.00000437,-0.00026827,0.00025984,
 0.00024483,-0.00036946,0.00048361,0.00120921,0.00149431,-0.00017644,-0
 .00031972,-0.00000303,-0.00000220,0.00000079,0.00001141,0.00000999,0.0
 0002362,0.00014820,-0.00196535,-0.00165654,-0.00000385,-0.00000199,-0.
 00000139,0.00000170,0.00000214,0.00000166,0.00000121,-0.00000220,-0.00
 000126,-0.00000101,0.00000013,-0.00000081,0.00002705,0.00003237,0.0000
 2163,0.00000944,0.00000105,-0.00000576,-0.00001621,0.00000430,0.000005
 10,-0.00000422,-0.00001741,-0.00001871,-0.00000005,0.00000095,-0.00000
 019,0.00082398,0.00142832,-0.00092325,-0.00122596,0.00090949,0.0002725
 3,0.00024775,-0.00028798,0.00013118,-0.00008747,-0.00007640,0.00004982
 ,0.00000006,-0.00000020,-0.00000014,-0.00000033,-0.00000010,0.00000015
 ,-0.00000217,0.00000189,0.00000079,-0.00000076,-0.00000018,-0.00000015
 ,0.00000042,-0.00000037,-0.00000097,0.00000119,-0.00000025,0.00000038,
 -0.00000360,-0.00001828,0.00000587,-0.00000141,0.00000564,-0.00000434,
 0.00000319,-0.00000329,0.00000981,0.00000530,0.00000356,-0.00000102,0.
 00000626,-0.00001614,0.00000540,0.00020152,0.00027063,0.00118159,0.034
 75120,-0.07328664,-0.29662146,0.00119127,-0.00623159,-0.01417287,0.001
 93297,-0.00110710,-0.00765752,-0.03931751,0.07968960,0.31837455\\-0.00
 000930,-0.00002382,-0.00000247,-0.00000153,0.00001387,0.00000890,-0.00
 000512,0.00001145,-0.00000665,0.00000993,0.00002826,-0.00000542,0.0000
 0469,-0.00001600,0.00000054,-0.00000407,-0.00000679,-0.00000679,-0.000
 00473,-0.00000143,0.00000393,0.00000100,-0.00001937,0.00000550,-0.0000
 0716,0.00001939,0.00000243,0.00001523,-0.00000148,-0.00000296,0.000000
 15,0.00001121,-0.00000458,-0.00000215,-0.00000112,-0.00000147,0.000004
 87,-0.00000318,0.00000546,-0.00000616,-0.00000204,0.00000011,0.0000022
 6,-0.00000567,0.00000559,-0.00000096,0.00000044,0.,-0.00000459,-0.0000
 0031,0.00000090,-0.00000612,0.00000983,-0.00000231,0.00000304,-0.00000
 477,0.00000272,0.00000564,0.00000140,0.00000055,0.00000017,-0.00000313
 ,-0.00000076,-0.00000360,-0.00000177,0.00000143,0.00000114,0.00000105,
 0.00000039,0.00000055,0.00000045,0.00000040,-0.00000043,0.00000126,-0.
 00000155,-0.00000574,-0.00001051,-0.00000355,0.00000130,0.00000083,0.0
 0000038,0.00000654,0.00000029,0.00000258,-0.00000580,0.00001462,-0.000
 01097,-0.00000001,-0.00000999,0.00000555,-0.00000239,0.00000254,0.0000
 0350,0.00000366,-0.00001558,-0.00001238,-0.00000401,0.00001170,0.00000
 211,0.00000526,0.00001458,0.00001397,0.00000665,-0.00001003,-0.0000022
 8,0.00000350,-0.00000033,0.00000504,-0.00000533,-0.00000734,-0.0000099
 0,0.00000402,0.00000481,0.00000296,0.00000522,0.00000228,0.00001144,-0
 .00000028,0.00000232,-0.00000058,-0.00000345,-0.00000183,0.00000402,-0
 .00000077,-0.00000189,-0.00000385,-0.00000713,-0.00000875,0.00000157,0
 .00000186,-0.00000084,-0.00000346,-0.00000049,0.00000108,0.00000265,-0
 .00000011,-0.00000084,-0.00000176,-0.00000168,0.00000106,0.00000087,-0
 .00000473,-0.00000001,0.00000253,0.00000239,0.00000184,-0.00000142,0.0
 0000056,-0.00000102,-0.00000005,0.00000028,0.00000070,-0.00000079,0.00
 000104,0.00000018,0.00000022,0.00000554,0.00000825,-0.00000358,-0.0000
 0610,-0.00000664,0.00000573,0.00000828,0.00001284,-0.00000695,-0.00000
 649,-0.00000254,-0.00000052,0.00000291,0.00000066,0.00000081,-0.000000
 32,-0.00000112,-0.00000085,-0.00000753,-0.00000155,0.00000259,0.000001
 98,-0.00000078,-0.00000248,0.00000234,-0.00000061,-0.00000246,0.000002
 10,0.00000106,0.00000079,-0.00000045,-0.00000219,-0.00000365,-0.000001
 47,-0.00000231,-0.00000032,-0.00000018,0.00000064,0.00000242,0.0000020
 5,0.00000089,-0.00000099,0.00000338,0.00000018,-0.00000048,-0.00000098
 ,-0.00000280,-0.00000007,0.00000293,-0.00000043,-0.00000415,0.00000011
 ,-0.00000066,-0.00000011,-0.00000036,-0.00000026,0.00000032,-0.0000008
 5,-0.00000024,0.00000168\\\@


 IN THE UNIVERSE THE DIFFICULT THINGS ARE DONE AS IF THEY WERE EASY.

                                                          -- LAO-TSU
 Job cpu time:       1 days 21 hours 56 minutes 18.1 seconds.
 Elapsed time:       0 days  1 hours 54 minutes 57.0 seconds.
 File lengths (MBytes):  RWF=   4542 Int=      0 D2E=      0 Chk=     60 Scr=      1
 Normal termination of Gaussian 16 at Mon Feb 14 21:43:45 2022.
