 Entering Gaussian System, Link 0=g16
 Input=input.com
 Output=input.log
 Initial command:
 /share/apps/g16.b01_avx2/g16/l1.exe "/scratch/Gau-978055.inp" -scrdir="/scratch/"
 Entering Link 1 = /share/apps/g16.b01_avx2/g16/l1.exe PID=    978057.
  
 Copyright (c) 1988-2017, Gaussian, Inc.  All Rights Reserved.
  
 This is part of the Gaussian(R) 16 program.  It is based on
 the Gaussian(R) 09 system (copyright 2009, Gaussian, Inc.),
 the Gaussian(R) 03 system (copyright 2003, Gaussian, Inc.),
 the Gaussian(R) 98 system (copyright 1998, Gaussian, Inc.),
 the Gaussian(R) 94 system (copyright 1995, Gaussian, Inc.),
 the Gaussian 92(TM) system (copyright 1992, Gaussian, Inc.),
 the Gaussian 90(TM) system (copyright 1990, Gaussian, Inc.),
 the Gaussian 88(TM) system (copyright 1988, Gaussian, Inc.),
 the Gaussian 86(TM) system (copyright 1986, Carnegie Mellon
 University), and the Gaussian 82(TM) system (copyright 1983,
 Carnegie Mellon University). Gaussian is a federally registered
 trademark of Gaussian, Inc.
  
 This software contains proprietary and confidential information,
 including trade secrets, belonging to Gaussian, Inc.
  
 This software is provided under written license and may be
 used, copied, transmitted, or stored only in accord with that
 written license.
  
 The following legend is applicable only to US Government
 contracts under FAR:
  
                    RESTRICTED RIGHTS LEGEND
  
 Use, reproduction and disclosure by the US Government is
 subject to restrictions as set forth in subparagraphs (a)
 and (c) of the Commercial Computer Software - Restricted
 Rights clause in FAR 52.227-19.
  
 Gaussian, Inc.
 340 Quinnipiac St., Bldg. 40, Wallingford CT 06492
  
  
 ---------------------------------------------------------------
 Warning -- This program may not be used in any manner that
 competes with the business of Gaussian, Inc. or will provide
 assistance to any competitor of Gaussian, Inc.  The licensee
 of this program is prohibited from giving any competitor of
 Gaussian, Inc. access to this program.  By using this program,
 the user acknowledges that Gaussian, Inc. is engaged in the
 business of creating and licensing software in the field of
 computational chemistry and represents and warrants to the
 licensee that it is not a competitor of Gaussian, Inc. and that
 it will not use this program in any manner prohibited above.
 ---------------------------------------------------------------
  

 Cite this work as:
 Gaussian 16, Revision B.01,
 M. J. Frisch, G. W. Trucks, H. B. Schlegel, G. E. Scuseria, 
 M. A. Robb, J. R. Cheeseman, G. Scalmani, V. Barone, 
 G. A. Petersson, H. Nakatsuji, X. Li, M. Caricato, A. V. Marenich, 
 J. Bloino, B. G. Janesko, R. Gomperts, B. Mennucci, H. P. Hratchian, 
 J. V. Ortiz, A. F. Izmaylov, J. L. Sonnenberg, D. Williams-Young, 
 F. Ding, F. Lipparini, F. Egidi, J. Goings, B. Peng, A. Petrone, 
 T. Henderson, D. Ranasinghe, V. G. Zakrzewski, J. Gao, N. Rega, 
 G. Zheng, W. Liang, M. Hada, M. Ehara, K. Toyota, R. Fukuda, 
 J. Hasegawa, M. Ishida, T. Nakajima, Y. Honda, O. Kitao, H. Nakai, 
 T. Vreven, K. Throssell, J. A. Montgomery, Jr., J. E. Peralta, 
 F. Ogliaro, M. J. Bearpark, J. J. Heyd, E. N. Brothers, K. N. Kudin, 
 V. N. Staroverov, T. A. Keith, R. Kobayashi, J. Normand, 
 K. Raghavachari, A. P. Rendell, J. C. Burant, S. S. Iyengar, 
 J. Tomasi, M. Cossi, J. M. Millam, M. Klene, C. Adamo, R. Cammi, 
 J. W. Ochterski, R. L. Martin, K. Morokuma, O. Farkas, 
 J. B. Foresman, and D. J. Fox, Gaussian, Inc., Wallingford CT, 2016.
 
 ******************************************
 Gaussian 16:  ES64L-G16RevB.01 20-Dec-2017
                15-Feb-2022 
 ******************************************
 %nproc=24
 Will use up to   24 processors via shared memory.
 %mem=64GB
 ----------------------------------------------------------------------
 #P PBE1PBE/6-31+G(d,p) opt freq int=(grid=99590) scrf=(cpcm, solvent=w
 ater) EmpiricalDispersion=GD3
 ----------------------------------------------------------------------
 1/18=20,19=15,26=6,38=1/1,3;
 2/9=110,12=2,17=6,18=5,40=1/2;
 3/5=1,6=6,7=111,11=2,25=1,30=1,70=2101,71=1,72=1,74=-13,75=99590,124=31/1,2,3;
 4//1;
 5/5=2,38=5,53=1/2;
 6/7=2,8=2,9=2,10=2,28=1/1;
 7//1,2,3,16;
 1/18=20,19=15,26=6/3(2);
 2/9=110/2;
 99//99;
 2/9=110/2;
 3/5=1,6=6,7=111,11=2,25=1,30=1,70=2105,71=1,72=1,74=-13,75=99590,124=31/1,2,3;
 4/5=5,16=3,69=1/1;
 5/5=2,38=5,53=1/2;
 7//1,2,3,16;
 1/18=20,19=15,26=6/3(-5);
 2/9=110/2;
 6/7=2,8=2,9=2,10=2,19=2,28=1/1;
 99/9=1/99;
 Leave Link    1 at Tue Feb 15 03:22:29 2022, MaxMem=  8589934592 cpu:               0.6 elap:               0.0
 (Enter /share/apps/g16.b01_avx2/g16/l101.exe)
 -------
 solv sp
 -------
 Symbolic Z-matrix:
 Charge =  0 Multiplicity = 1
 N                    -4.41954  -1.38101   0.15549 
 H                    -4.20352  -0.45588  -0.21177 
 C                    -2.2193   -2.0173   -0.6941 
 C                    -3.4826   -2.36275   0.12885 
 O                    -3.61409  -3.47231   0.64682 
 N                    -1.01799  -2.45953   0.00288 
 H                    -0.5531   -3.3052   -0.31248 
 C                    -0.43349  -1.77028   0.99977 
 O                    -0.85282  -0.67407   1.40995 
 C                     0.83007  -2.44187   1.58471 
 N                     2.00875  -2.03206   0.81875 
 H                     2.47467  -1.17055   1.09813 
 C                     2.32235  -2.65038  -0.34941 
 O                     1.67635  -3.60302  -0.79697 
 H                    -2.1581   -0.93423  -0.83227 
 H                     0.72829  -3.52323   1.44982 
 C                     3.62153  -2.18963  -1.05556 
 C                    -2.29964  -2.7128   -2.05862 
 H                    -2.37558  -3.79754  -1.92502 
 H                    -3.18604  -2.37484  -2.60391 
 H                    -1.4116   -2.48813  -2.65899 
 C                     1.00847  -2.11546   3.06468 
 H                     1.18833  -1.04725   3.20855 
 H                     0.11054  -2.39356   3.62446 
 H                     1.86202  -2.67034   3.46761 
 C                    -1.46682   1.96678  -0.65266 
 N                    -2.54121   2.94193  -0.82244 
 H                    -2.26765   3.8994   -1.00644 
 C                    -3.84679   2.57488  -0.87944 
 O                    -4.21592   1.40152  -0.74384 
 C                    -4.84799   3.69371  -1.10856 
 C                    -0.33757   2.64091   0.13026 
 O                     0.1961    3.68108  -0.28903 
 N                     0.025     2.0209    1.27787 
 H                    -0.33584   1.07667   1.46159 
 C                     1.19585   2.46155   2.03811 
 C                     2.41835   1.75234   1.42463 
 O                     2.89993   0.71146   1.89178 
 N                     2.88368   2.32671   0.28351 
 H                     2.29253   3.03585  -0.14918 
 H                    -1.87341   1.13563  -0.07402 
 H                     1.29564   3.53794   1.8673 
 C                     3.85913   1.62863  -0.54707 
 C                    -0.93535   1.46024  -2.00459 
 H                    -0.55299   2.29922  -2.59508 
 H                    -0.11769   0.74683  -1.86468 
 H                    -1.74725   0.97731  -2.55832 
 C                     1.03493   2.16887   3.52571 
 H                     0.16567   2.70689   3.91642 
 H                     0.89493   1.0996    3.70448 
 H                     1.92567   2.48819   4.0757 
 H                    -4.3837    4.67925  -1.21039 
 C                     3.27309   0.27989  -1.02242 
 O                     2.21132   0.2294   -1.63883 
 N                     4.02116  -0.82051  -0.71937 
 H                     4.78845  -0.69244  -0.07404 
 H                    -5.42314   3.46969  -2.01228 
 H                    -5.54834   3.71129  -0.26778 
 C                    -5.69164  -1.55513   0.83525 
 H                    -5.84145  -2.62082   1.02051 
 H                    -5.70823  -1.02795   1.79833 
 H                    -6.50773  -1.17129   0.2131 
 C                     3.55116  -2.43434  -2.56826 
 H                     2.81305  -1.77418  -3.02787 
 H                     4.53101  -2.24791  -3.02027 
 H                     3.25771  -3.46979  -2.75333 
 H                     4.40407  -2.83826  -0.64038 
 H                     4.75159   1.44546   0.06425 
 C                     4.22153   2.4915   -1.75848 
 H                     4.61971   3.45853  -1.43375 
 H                     4.97908   1.99383  -2.37187 
 H                     3.33489   2.65809  -2.37888 
 
 ITRead=  0  0  0  0  0  0  0  0  0  0  0  0  0  0  0  0  0  0  0  0
 ITRead=  0  0  0  0  0  0  0  0  0  0  0  0  0  0  0  0  0  0  0  0
 ITRead=  0  0  0  0  0  0  0  0  0  0  0  0  0  0  0  0  0  0  0  0
 ITRead=  0  0  0  0  0  0  0  0  0  0  0  0
 MicOpt= -1 -1 -1 -1 -1 -1 -1 -1 -1 -1 -1 -1 -1 -1 -1 -1 -1 -1 -1 -1
 MicOpt= -1 -1 -1 -1 -1 -1 -1 -1 -1 -1 -1 -1 -1 -1 -1 -1 -1 -1 -1 -1
 MicOpt= -1 -1 -1 -1 -1 -1 -1 -1 -1 -1 -1 -1 -1 -1 -1 -1 -1 -1 -1 -1
 MicOpt= -1 -1 -1 -1 -1 -1 -1 -1 -1 -1 -1 -1
 NAtoms=     72 NQM=       72 NQMF=       0 NMMI=      0 NMMIF=      0
                NMic=       0 NMicF=      0.
                    Isotopes and Nuclear Properties:
 (Nuclear quadrupole moments (NQMom) in fm**2, nuclear magnetic moments (NMagM)
  in nuclear magnetons)

  Atom         1           2           3           4           5           6           7           8           9          10
 IAtWgt=          14           1          12          12          16          14           1          12          16          12
 AtmWgt=  14.0030740   1.0078250  12.0000000  12.0000000  15.9949146  14.0030740   1.0078250  12.0000000  15.9949146  12.0000000
 NucSpn=           2           1           0           0           0           2           1           0           0           0
 AtZEff=  -0.0000000  -0.0000000  -0.0000000  -0.0000000  -0.0000000  -0.0000000  -0.0000000  -0.0000000  -0.0000000  -0.0000000
 NQMom=    2.0440000   0.0000000   0.0000000   0.0000000   0.0000000   2.0440000   0.0000000   0.0000000   0.0000000   0.0000000
 NMagM=    0.4037610   2.7928460   0.0000000   0.0000000   0.0000000   0.4037610   2.7928460   0.0000000   0.0000000   0.0000000
 AtZNuc=   7.0000000   1.0000000   6.0000000   6.0000000   8.0000000   7.0000000   1.0000000   6.0000000   8.0000000   6.0000000

  Atom        11          12          13          14          15          16          17          18          19          20
 IAtWgt=          14           1          12          16           1           1          12          12           1           1
 AtmWgt=  14.0030740   1.0078250  12.0000000  15.9949146   1.0078250   1.0078250  12.0000000  12.0000000   1.0078250   1.0078250
 NucSpn=           2           1           0           0           1           1           0           0           1           1
 AtZEff=  -0.0000000  -0.0000000  -0.0000000  -0.0000000  -0.0000000  -0.0000000  -0.0000000  -0.0000000  -0.0000000  -0.0000000
 NQMom=    2.0440000   0.0000000   0.0000000   0.0000000   0.0000000   0.0000000   0.0000000   0.0000000   0.0000000   0.0000000
 NMagM=    0.4037610   2.7928460   0.0000000   0.0000000   2.7928460   2.7928460   0.0000000   0.0000000   2.7928460   2.7928460
 AtZNuc=   7.0000000   1.0000000   6.0000000   8.0000000   1.0000000   1.0000000   6.0000000   6.0000000   1.0000000   1.0000000

  Atom        21          22          23          24          25          26          27          28          29          30
 IAtWgt=           1          12           1           1           1          12          14           1          12          16
 AtmWgt=   1.0078250  12.0000000   1.0078250   1.0078250   1.0078250  12.0000000  14.0030740   1.0078250  12.0000000  15.9949146
 NucSpn=           1           0           1           1           1           0           2           1           0           0
 AtZEff=  -0.0000000  -0.0000000  -0.0000000  -0.0000000  -0.0000000  -0.0000000  -0.0000000  -0.0000000  -0.0000000  -0.0000000
 NQMom=    0.0000000   0.0000000   0.0000000   0.0000000   0.0000000   0.0000000   2.0440000   0.0000000   0.0000000   0.0000000
 NMagM=    2.7928460   0.0000000   2.7928460   2.7928460   2.7928460   0.0000000   0.4037610   2.7928460   0.0000000   0.0000000
 AtZNuc=   1.0000000   6.0000000   1.0000000   1.0000000   1.0000000   6.0000000   7.0000000   1.0000000   6.0000000   8.0000000

  Atom        31          32          33          34          35          36          37          38          39          40
 IAtWgt=          12          12          16          14           1          12          12          16          14           1
 AtmWgt=  12.0000000  12.0000000  15.9949146  14.0030740   1.0078250  12.0000000  12.0000000  15.9949146  14.0030740   1.0078250
 NucSpn=           0           0           0           2           1           0           0           0           2           1
 AtZEff=  -0.0000000  -0.0000000  -0.0000000  -0.0000000  -0.0000000  -0.0000000  -0.0000000  -0.0000000  -0.0000000  -0.0000000
 NQMom=    0.0000000   0.0000000   0.0000000   2.0440000   0.0000000   0.0000000   0.0000000   0.0000000   2.0440000   0.0000000
 NMagM=    0.0000000   0.0000000   0.0000000   0.4037610   2.7928460   0.0000000   0.0000000   0.0000000   0.4037610   2.7928460
 AtZNuc=   6.0000000   6.0000000   8.0000000   7.0000000   1.0000000   6.0000000   6.0000000   8.0000000   7.0000000   1.0000000

  Atom        41          42          43          44          45          46          47          48          49          50
 IAtWgt=           1           1          12          12           1           1           1          12           1           1
 AtmWgt=   1.0078250   1.0078250  12.0000000  12.0000000   1.0078250   1.0078250   1.0078250  12.0000000   1.0078250   1.0078250
 NucSpn=           1           1           0           0           1           1           1           0           1           1
 AtZEff=  -0.0000000  -0.0000000  -0.0000000  -0.0000000  -0.0000000  -0.0000000  -0.0000000  -0.0000000  -0.0000000  -0.0000000
 NQMom=    0.0000000   0.0000000   0.0000000   0.0000000   0.0000000   0.0000000   0.0000000   0.0000000   0.0000000   0.0000000
 NMagM=    2.7928460   2.7928460   0.0000000   0.0000000   2.7928460   2.7928460   2.7928460   0.0000000   2.7928460   2.7928460
 AtZNuc=   1.0000000   1.0000000   6.0000000   6.0000000   1.0000000   1.0000000   1.0000000   6.0000000   1.0000000   1.0000000

  Atom        51          52          53          54          55          56          57          58          59          60
 IAtWgt=           1           1          12          16          14           1           1           1          12           1
 AtmWgt=   1.0078250   1.0078250  12.0000000  15.9949146  14.0030740   1.0078250   1.0078250   1.0078250  12.0000000   1.0078250
 NucSpn=           1           1           0           0           2           1           1           1           0           1
 AtZEff=  -0.0000000  -0.0000000  -0.0000000  -0.0000000  -0.0000000  -0.0000000  -0.0000000  -0.0000000  -0.0000000  -0.0000000
 NQMom=    0.0000000   0.0000000   0.0000000   0.0000000   2.0440000   0.0000000   0.0000000   0.0000000   0.0000000   0.0000000
 NMagM=    2.7928460   2.7928460   0.0000000   0.0000000   0.4037610   2.7928460   2.7928460   2.7928460   0.0000000   2.7928460
 AtZNuc=   1.0000000   1.0000000   6.0000000   8.0000000   7.0000000   1.0000000   1.0000000   1.0000000   6.0000000   1.0000000

  Atom        61          62          63          64          65          66          67          68          69          70
 IAtWgt=           1           1          12           1           1           1           1           1          12           1
 AtmWgt=   1.0078250   1.0078250  12.0000000   1.0078250   1.0078250   1.0078250   1.0078250   1.0078250  12.0000000   1.0078250
 NucSpn=           1           1           0           1           1           1           1           1           0           1
 AtZEff=  -0.0000000  -0.0000000  -0.0000000  -0.0000000  -0.0000000  -0.0000000  -0.0000000  -0.0000000  -0.0000000  -0.0000000
 NQMom=    0.0000000   0.0000000   0.0000000   0.0000000   0.0000000   0.0000000   0.0000000   0.0000000   0.0000000   0.0000000
 NMagM=    2.7928460   2.7928460   0.0000000   2.7928460   2.7928460   2.7928460   2.7928460   2.7928460   0.0000000   2.7928460
 AtZNuc=   1.0000000   1.0000000   6.0000000   1.0000000   1.0000000   1.0000000   1.0000000   1.0000000   6.0000000   1.0000000

  Atom        71          72
 IAtWgt=           1           1
 AtmWgt=   1.0078250   1.0078250
 NucSpn=           1           1
 AtZEff=  -0.0000000  -0.0000000
 NQMom=    0.0000000   0.0000000
 NMagM=    2.7928460   2.7928460
 AtZNuc=   1.0000000   1.0000000
 Leave Link  101 at Tue Feb 15 03:22:30 2022, MaxMem=  8589934592 cpu:               6.4 elap:               0.3
 (Enter /share/apps/g16.b01_avx2/g16/l103.exe)

 GradGradGradGradGradGradGradGradGradGradGradGradGradGradGradGradGradGrad
 Berny optimization.
 Initialization pass.
                           ----------------------------
                           !    Initial Parameters    !
                           ! (Angstroms and Degrees)  !
 --------------------------                            --------------------------
 ! Name  Definition              Value          Derivative Info.                !
 --------------------------------------------------------------------------------
 ! R1    R(1,2)                  1.0185         estimate D2E/DX2                !
 ! R2    R(1,4)                  1.3573         estimate D2E/DX2                !
 ! R3    R(1,59)                 1.4528         estimate D2E/DX2                !
 ! R4    R(3,4)                  1.5468         estimate D2E/DX2                !
 ! R5    R(3,6)                  1.4576         estimate D2E/DX2                !
 ! R6    R(3,15)                 1.0936         estimate D2E/DX2                !
 ! R7    R(3,18)                 1.5336         estimate D2E/DX2                !
 ! R8    R(4,5)                  1.2315         estimate D2E/DX2                !
 ! R9    R(6,7)                  1.0152         estimate D2E/DX2                !
 ! R10   R(6,8)                  1.3455         estimate D2E/DX2                !
 ! R11   R(8,9)                  1.2433         estimate D2E/DX2                !
 ! R12   R(8,10)                 1.5459         estimate D2E/DX2                !
 ! R13   R(10,11)                1.4642         estimate D2E/DX2                !
 ! R14   R(10,16)                1.0945         estimate D2E/DX2                !
 ! R15   R(10,22)                1.526          estimate D2E/DX2                !
 ! R16   R(11,12)                1.0185         estimate D2E/DX2                !
 ! R17   R(11,13)                1.3584         estimate D2E/DX2                !
 ! R18   R(13,14)                1.235          estimate D2E/DX2                !
 ! R19   R(13,17)                1.5488         estimate D2E/DX2                !
 ! R20   R(17,55)                1.4653         estimate D2E/DX2                !
 ! R21   R(17,63)                1.534          estimate D2E/DX2                !
 ! R22   R(17,67)                1.0979         estimate D2E/DX2                !
 ! R23   R(18,19)                1.0956         estimate D2E/DX2                !
 ! R24   R(18,20)                1.0942         estimate D2E/DX2                !
 ! R25   R(18,21)                1.0952         estimate D2E/DX2                !
 ! R26   R(22,23)                1.0928         estimate D2E/DX2                !
 ! R27   R(22,24)                1.0941         estimate D2E/DX2                !
 ! R28   R(22,25)                1.0949         estimate D2E/DX2                !
 ! R29   R(26,27)                1.4608         estimate D2E/DX2                !
 ! R30   R(26,32)                1.5306         estimate D2E/DX2                !
 ! R31   R(26,41)                1.0913         estimate D2E/DX2                !
 ! R32   R(26,44)                1.5384         estimate D2E/DX2                !
 ! R33   R(27,28)                1.0126         estimate D2E/DX2                !
 ! R34   R(27,29)                1.3574         estimate D2E/DX2                !
 ! R35   R(29,30)                1.2375         estimate D2E/DX2                !
 ! R36   R(29,31)                1.5188         estimate D2E/DX2                !
 ! R37   R(31,52)                1.0942         estimate D2E/DX2                !
 ! R38   R(31,57)                1.0944         estimate D2E/DX2                !
 ! R39   R(31,58)                1.0944         estimate D2E/DX2                !
 ! R40   R(32,33)                1.242          estimate D2E/DX2                !
 ! R41   R(32,34)                1.3538         estimate D2E/DX2                !
 ! R42   R(34,35)                1.0274         estimate D2E/DX2                !
 ! R43   R(34,36)                1.4639         estimate D2E/DX2                !
 ! R44   R(36,37)                1.5407         estimate D2E/DX2                !
 ! R45   R(36,42)                1.0944         estimate D2E/DX2                !
 ! R46   R(36,48)                1.5246         estimate D2E/DX2                !
 ! R47   R(37,38)                1.2384         estimate D2E/DX2                !
 ! R48   R(37,39)                1.3596         estimate D2E/DX2                !
 ! R49   R(39,40)                1.0196         estimate D2E/DX2                !
 ! R50   R(39,43)                1.459          estimate D2E/DX2                !
 ! R51   R(43,53)                1.5455         estimate D2E/DX2                !
 ! R52   R(43,68)                1.0972         estimate D2E/DX2                !
 ! R53   R(43,69)                1.5308         estimate D2E/DX2                !
 ! R54   R(44,45)                1.0949         estimate D2E/DX2                !
 ! R55   R(44,46)                1.0941         estimate D2E/DX2                !
 ! R56   R(44,47)                1.095          estimate D2E/DX2                !
 ! R57   R(48,49)                1.0944         estimate D2E/DX2                !
 ! R58   R(48,50)                1.0931         estimate D2E/DX2                !
 ! R59   R(48,51)                1.0945         estimate D2E/DX2                !
 ! R60   R(53,54)                1.2288         estimate D2E/DX2                !
 ! R61   R(53,55)                1.3647         estimate D2E/DX2                !
 ! R62   R(55,56)                1.0107         estimate D2E/DX2                !
 ! R63   R(59,60)                1.092          estimate D2E/DX2                !
 ! R64   R(59,61)                1.098          estimate D2E/DX2                !
 ! R65   R(59,62)                1.0956         estimate D2E/DX2                !
 ! R66   R(63,64)                1.0917         estimate D2E/DX2                !
 ! R67   R(63,65)                1.0951         estimate D2E/DX2                !
 ! R68   R(63,66)                1.092          estimate D2E/DX2                !
 ! R69   R(69,70)                1.0951         estimate D2E/DX2                !
 ! R70   R(69,71)                1.0944         estimate D2E/DX2                !
 ! R71   R(69,72)                1.0949         estimate D2E/DX2                !
 ! A1    A(2,1,4)              120.2304         estimate D2E/DX2                !
 ! A2    A(2,1,59)             117.5991         estimate D2E/DX2                !
 ! A3    A(4,1,59)             121.7971         estimate D2E/DX2                !
 ! A4    A(4,3,6)              110.5466         estimate D2E/DX2                !
 ! A5    A(4,3,15)             109.5191         estimate D2E/DX2                !
 ! A6    A(4,3,18)             109.2269         estimate D2E/DX2                !
 ! A7    A(6,3,15)             108.3472         estimate D2E/DX2                !
 ! A8    A(6,3,18)             109.3313         estimate D2E/DX2                !
 ! A9    A(15,3,18)            109.8565         estimate D2E/DX2                !
 ! A10   A(1,4,3)              114.3731         estimate D2E/DX2                !
 ! A11   A(1,4,5)              124.7285         estimate D2E/DX2                !
 ! A12   A(3,4,5)              120.8092         estimate D2E/DX2                !
 ! A13   A(3,6,7)              118.789          estimate D2E/DX2                !
 ! A14   A(3,6,8)              123.8408         estimate D2E/DX2                !
 ! A15   A(7,6,8)              117.2523         estimate D2E/DX2                !
 ! A16   A(6,8,9)              123.3376         estimate D2E/DX2                !
 ! A17   A(6,8,10)             114.3846         estimate D2E/DX2                !
 ! A18   A(9,8,10)             122.2682         estimate D2E/DX2                !
 ! A19   A(8,10,11)            109.7823         estimate D2E/DX2                !
 ! A20   A(8,10,16)            107.8538         estimate D2E/DX2                !
 ! A21   A(8,10,22)            111.691          estimate D2E/DX2                !
 ! A22   A(11,10,16)           106.6734         estimate D2E/DX2                !
 ! A23   A(11,10,22)           110.6928         estimate D2E/DX2                !
 ! A24   A(16,10,22)           109.9822         estimate D2E/DX2                !
 ! A25   A(10,11,12)           117.4841         estimate D2E/DX2                !
 ! A26   A(10,11,13)           120.5505         estimate D2E/DX2                !
 ! A27   A(12,11,13)           121.0175         estimate D2E/DX2                !
 ! A28   A(11,13,14)           122.8209         estimate D2E/DX2                !
 ! A29   A(11,13,17)           116.7643         estimate D2E/DX2                !
 ! A30   A(14,13,17)           120.2001         estimate D2E/DX2                !
 ! A31   A(13,17,55)           113.7103         estimate D2E/DX2                !
 ! A32   A(13,17,63)           111.3257         estimate D2E/DX2                !
 ! A33   A(13,17,67)           104.46           estimate D2E/DX2                !
 ! A34   A(55,17,63)           112.8181         estimate D2E/DX2                !
 ! A35   A(55,17,67)           105.7145         estimate D2E/DX2                !
 ! A36   A(63,17,67)           108.141          estimate D2E/DX2                !
 ! A37   A(3,18,19)            110.1296         estimate D2E/DX2                !
 ! A38   A(3,18,20)            110.2278         estimate D2E/DX2                !
 ! A39   A(3,18,21)            110.6228         estimate D2E/DX2                !
 ! A40   A(19,18,20)           108.0852         estimate D2E/DX2                !
 ! A41   A(19,18,21)           109.0359         estimate D2E/DX2                !
 ! A42   A(20,18,21)           108.6813         estimate D2E/DX2                !
 ! A43   A(10,22,23)           110.8564         estimate D2E/DX2                !
 ! A44   A(10,22,24)           110.2362         estimate D2E/DX2                !
 ! A45   A(10,22,25)           109.8553         estimate D2E/DX2                !
 ! A46   A(23,22,24)           108.4335         estimate D2E/DX2                !
 ! A47   A(23,22,25)           108.581          estimate D2E/DX2                !
 ! A48   A(24,22,25)           108.8265         estimate D2E/DX2                !
 ! A49   A(27,26,32)           107.9425         estimate D2E/DX2                !
 ! A50   A(27,26,41)           107.2181         estimate D2E/DX2                !
 ! A51   A(27,26,44)           111.8223         estimate D2E/DX2                !
 ! A52   A(32,26,41)           109.8227         estimate D2E/DX2                !
 ! A53   A(32,26,44)           109.8553         estimate D2E/DX2                !
 ! A54   A(41,26,44)           110.1144         estimate D2E/DX2                !
 ! A55   A(26,27,28)           116.9751         estimate D2E/DX2                !
 ! A56   A(26,27,29)           122.1246         estimate D2E/DX2                !
 ! A57   A(28,27,29)           120.5224         estimate D2E/DX2                !
 ! A58   A(27,29,30)           122.5944         estimate D2E/DX2                !
 ! A59   A(27,29,31)           116.1799         estimate D2E/DX2                !
 ! A60   A(30,29,31)           121.2234         estimate D2E/DX2                !
 ! A61   A(29,31,52)           113.4432         estimate D2E/DX2                !
 ! A62   A(29,31,57)           108.6769         estimate D2E/DX2                !
 ! A63   A(29,31,58)           108.5294         estimate D2E/DX2                !
 ! A64   A(52,31,57)           109.3008         estimate D2E/DX2                !
 ! A65   A(52,31,58)           109.1823         estimate D2E/DX2                !
 ! A66   A(57,31,58)           107.5403         estimate D2E/DX2                !
 ! A67   A(26,32,33)           120.8777         estimate D2E/DX2                !
 ! A68   A(26,32,34)           115.4347         estimate D2E/DX2                !
 ! A69   A(33,32,34)           123.6861         estimate D2E/DX2                !
 ! A70   A(32,34,35)           118.5822         estimate D2E/DX2                !
 ! A71   A(32,34,36)           121.1019         estimate D2E/DX2                !
 ! A72   A(35,34,36)           117.6899         estimate D2E/DX2                !
 ! A73   A(34,36,37)           106.8148         estimate D2E/DX2                !
 ! A74   A(34,36,42)           106.7333         estimate D2E/DX2                !
 ! A75   A(34,36,48)           111.3775         estimate D2E/DX2                !
 ! A76   A(37,36,42)           108.5563         estimate D2E/DX2                !
 ! A77   A(37,36,48)           112.5748         estimate D2E/DX2                !
 ! A78   A(42,36,48)           110.5305         estimate D2E/DX2                !
 ! A79   A(36,37,38)           123.042          estimate D2E/DX2                !
 ! A80   A(36,37,39)           114.2858         estimate D2E/DX2                !
 ! A81   A(38,37,39)           122.5872         estimate D2E/DX2                !
 ! A82   A(37,39,40)           116.8439         estimate D2E/DX2                !
 ! A83   A(37,39,43)           120.2972         estimate D2E/DX2                !
 ! A84   A(40,39,43)           118.6088         estimate D2E/DX2                !
 ! A85   A(39,43,53)           109.8241         estimate D2E/DX2                !
 ! A86   A(39,43,68)           107.85           estimate D2E/DX2                !
 ! A87   A(39,43,69)           109.821          estimate D2E/DX2                !
 ! A88   A(53,43,68)           109.5193         estimate D2E/DX2                !
 ! A89   A(53,43,69)           109.7725         estimate D2E/DX2                !
 ! A90   A(68,43,69)           110.0268         estimate D2E/DX2                !
 ! A91   A(26,44,45)           110.0165         estimate D2E/DX2                !
 ! A92   A(26,44,46)           111.1304         estimate D2E/DX2                !
 ! A93   A(26,44,47)           109.4784         estimate D2E/DX2                !
 ! A94   A(45,44,46)           107.9159         estimate D2E/DX2                !
 ! A95   A(45,44,47)           108.9147         estimate D2E/DX2                !
 ! A96   A(46,44,47)           109.3416         estimate D2E/DX2                !
 ! A97   A(36,48,49)           109.7423         estimate D2E/DX2                !
 ! A98   A(36,48,50)           111.153          estimate D2E/DX2                !
 ! A99   A(36,48,51)           110.3899         estimate D2E/DX2                !
 ! A100  A(49,48,50)           108.7096         estimate D2E/DX2                !
 ! A101  A(49,48,51)           108.8808         estimate D2E/DX2                !
 ! A102  A(50,48,51)           107.9051         estimate D2E/DX2                !
 ! A103  A(43,53,54)           121.1853         estimate D2E/DX2                !
 ! A104  A(43,53,55)           115.3115         estimate D2E/DX2                !
 ! A105  A(54,53,55)           123.5003         estimate D2E/DX2                !
 ! A106  A(17,55,53)           123.5698         estimate D2E/DX2                !
 ! A107  A(17,55,56)           118.1582         estimate D2E/DX2                !
 ! A108  A(53,55,56)           117.1133         estimate D2E/DX2                !
 ! A109  A(1,59,60)            108.4496         estimate D2E/DX2                !
 ! A110  A(1,59,61)            111.474          estimate D2E/DX2                !
 ! A111  A(1,59,62)            110.153          estimate D2E/DX2                !
 ! A112  A(60,59,61)           108.5216         estimate D2E/DX2                !
 ! A113  A(60,59,62)           109.6361         estimate D2E/DX2                !
 ! A114  A(61,59,62)           108.578          estimate D2E/DX2                !
 ! A115  A(17,63,64)           110.47           estimate D2E/DX2                !
 ! A116  A(17,63,65)           109.8062         estimate D2E/DX2                !
 ! A117  A(17,63,66)           109.3121         estimate D2E/DX2                !
 ! A118  A(64,63,65)           109.1617         estimate D2E/DX2                !
 ! A119  A(64,63,66)           108.6832         estimate D2E/DX2                !
 ! A120  A(65,63,66)           109.3846         estimate D2E/DX2                !
 ! A121  A(43,69,70)           110.4369         estimate D2E/DX2                !
 ! A122  A(43,69,71)           110.5524         estimate D2E/DX2                !
 ! A123  A(43,69,72)           110.0262         estimate D2E/DX2                !
 ! A124  A(70,69,71)           108.426          estimate D2E/DX2                !
 ! A125  A(70,69,72)           109.1555         estimate D2E/DX2                !
 ! A126  A(71,69,72)           108.1885         estimate D2E/DX2                !
 ! D1    D(2,1,4,3)             -9.7283         estimate D2E/DX2                !
 ! D2    D(2,1,4,5)            173.6956         estimate D2E/DX2                !
 ! D3    D(59,1,4,3)           177.4567         estimate D2E/DX2                !
 ! D4    D(59,1,4,5)             0.8806         estimate D2E/DX2                !
 ! D5    D(2,1,59,60)          170.8951         estimate D2E/DX2                !
 ! D6    D(2,1,59,61)          -69.6923         estimate D2E/DX2                !
 ! D7    D(2,1,59,62)           50.9089         estimate D2E/DX2                !
 ! D8    D(4,1,59,60)          -16.1089         estimate D2E/DX2                !
 ! D9    D(4,1,59,61)          103.3036         estimate D2E/DX2                !
 ! D10   D(4,1,59,62)         -136.0952         estimate D2E/DX2                !
 ! D11   D(6,3,4,1)            138.0289         estimate D2E/DX2                !
 ! D12   D(6,3,4,5)            -45.2473         estimate D2E/DX2                !
 ! D13   D(15,3,4,1)            18.7196         estimate D2E/DX2                !
 ! D14   D(15,3,4,5)          -164.5566         estimate D2E/DX2                !
 ! D15   D(18,3,4,1)          -101.6317         estimate D2E/DX2                !
 ! D16   D(18,3,4,5)            75.0922         estimate D2E/DX2                !
 ! D17   D(4,3,6,7)            102.9711         estimate D2E/DX2                !
 ! D18   D(4,3,6,8)            -81.0907         estimate D2E/DX2                !
 ! D19   D(15,3,6,7)          -137.0137         estimate D2E/DX2                !
 ! D20   D(15,3,6,8)            38.9245         estimate D2E/DX2                !
 ! D21   D(18,3,6,7)           -17.3059         estimate D2E/DX2                !
 ! D22   D(18,3,6,8)           158.6323         estimate D2E/DX2                !
 ! D23   D(4,3,18,19)          -59.0493         estimate D2E/DX2                !
 ! D24   D(4,3,18,20)           60.1216         estimate D2E/DX2                !
 ! D25   D(4,3,18,21)         -179.6533         estimate D2E/DX2                !
 ! D26   D(6,3,18,19)           62.0324         estimate D2E/DX2                !
 ! D27   D(6,3,18,20)         -178.7967         estimate D2E/DX2                !
 ! D28   D(6,3,18,21)          -58.5716         estimate D2E/DX2                !
 ! D29   D(15,3,18,19)        -179.1935         estimate D2E/DX2                !
 ! D30   D(15,3,18,20)         -60.0226         estimate D2E/DX2                !
 ! D31   D(15,3,18,21)          60.2025         estimate D2E/DX2                !
 ! D32   D(3,6,8,9)             -1.1604         estimate D2E/DX2                !
 ! D33   D(3,6,8,10)           179.9459         estimate D2E/DX2                !
 ! D34   D(7,6,8,9)            174.8355         estimate D2E/DX2                !
 ! D35   D(7,6,8,10)            -4.0583         estimate D2E/DX2                !
 ! D36   D(6,8,10,11)           87.7098         estimate D2E/DX2                !
 ! D37   D(6,8,10,16)          -28.1511         estimate D2E/DX2                !
 ! D38   D(6,8,10,22)         -149.115          estimate D2E/DX2                !
 ! D39   D(9,8,10,11)          -91.1972         estimate D2E/DX2                !
 ! D40   D(9,8,10,16)          152.9419         estimate D2E/DX2                !
 ! D41   D(9,8,10,22)           31.978          estimate D2E/DX2                !
 ! D42   D(8,10,11,12)          86.8437         estimate D2E/DX2                !
 ! D43   D(8,10,11,13)         -82.1287         estimate D2E/DX2                !
 ! D44   D(16,10,11,12)       -156.551          estimate D2E/DX2                !
 ! D45   D(16,10,11,13)         34.4766         estimate D2E/DX2                !
 ! D46   D(22,10,11,12)        -36.917          estimate D2E/DX2                !
 ! D47   D(22,10,11,13)        154.1107         estimate D2E/DX2                !
 ! D48   D(8,10,22,23)         -64.6387         estimate D2E/DX2                !
 ! D49   D(8,10,22,24)          55.4333         estimate D2E/DX2                !
 ! D50   D(8,10,22,25)         175.3534         estimate D2E/DX2                !
 ! D51   D(11,10,22,23)         58.0179         estimate D2E/DX2                !
 ! D52   D(11,10,22,24)        178.0898         estimate D2E/DX2                !
 ! D53   D(11,10,22,25)        -61.99           estimate D2E/DX2                !
 ! D54   D(16,10,22,23)        175.6437         estimate D2E/DX2                !
 ! D55   D(16,10,22,24)        -64.2843         estimate D2E/DX2                !
 ! D56   D(16,10,22,25)         55.6359         estimate D2E/DX2                !
 ! D57   D(10,11,13,14)         -2.7063         estimate D2E/DX2                !
 ! D58   D(10,11,13,17)       -177.3839         estimate D2E/DX2                !
 ! D59   D(12,11,13,14)       -171.2859         estimate D2E/DX2                !
 ! D60   D(12,11,13,17)         14.0365         estimate D2E/DX2                !
 ! D61   D(11,13,17,55)        -25.0325         estimate D2E/DX2                !
 ! D62   D(11,13,17,63)       -153.7993         estimate D2E/DX2                !
 ! D63   D(11,13,17,67)         89.7228         estimate D2E/DX2                !
 ! D64   D(14,13,17,55)        160.1423         estimate D2E/DX2                !
 ! D65   D(14,13,17,63)         31.3755         estimate D2E/DX2                !
 ! D66   D(14,13,17,67)        -85.1024         estimate D2E/DX2                !
 ! D67   D(13,17,55,53)        -63.4458         estimate D2E/DX2                !
 ! D68   D(13,17,55,56)        103.8779         estimate D2E/DX2                !
 ! D69   D(63,17,55,53)         64.5571         estimate D2E/DX2                !
 ! D70   D(63,17,55,56)       -128.1193         estimate D2E/DX2                !
 ! D71   D(67,17,55,53)       -177.4549         estimate D2E/DX2                !
 ! D72   D(67,17,55,56)        -10.1313         estimate D2E/DX2                !
 ! D73   D(13,17,63,64)         68.315          estimate D2E/DX2                !
 ! D74   D(13,17,63,65)       -171.2324         estimate D2E/DX2                !
 ! D75   D(13,17,63,66)        -51.2312         estimate D2E/DX2                !
 ! D76   D(55,17,63,64)        -60.9254         estimate D2E/DX2                !
 ! D77   D(55,17,63,65)         59.5272         estimate D2E/DX2                !
 ! D78   D(55,17,63,66)        179.5284         estimate D2E/DX2                !
 ! D79   D(67,17,63,64)       -177.4806         estimate D2E/DX2                !
 ! D80   D(67,17,63,65)        -57.028          estimate D2E/DX2                !
 ! D81   D(67,17,63,66)         62.9731         estimate D2E/DX2                !
 ! D82   D(32,26,27,28)         38.607          estimate D2E/DX2                !
 ! D83   D(32,26,27,29)       -148.4216         estimate D2E/DX2                !
 ! D84   D(41,26,27,28)        156.8699         estimate D2E/DX2                !
 ! D85   D(41,26,27,29)        -30.1587         estimate D2E/DX2                !
 ! D86   D(44,26,27,28)        -82.3388         estimate D2E/DX2                !
 ! D87   D(44,26,27,29)         90.6326         estimate D2E/DX2                !
 ! D88   D(27,26,32,33)        -57.3625         estimate D2E/DX2                !
 ! D89   D(27,26,32,34)        123.0757         estimate D2E/DX2                !
 ! D90   D(41,26,32,33)       -173.9435         estimate D2E/DX2                !
 ! D91   D(41,26,32,34)          6.4946         estimate D2E/DX2                !
 ! D92   D(44,26,32,33)         64.8025         estimate D2E/DX2                !
 ! D93   D(44,26,32,34)       -114.7593         estimate D2E/DX2                !
 ! D94   D(27,26,44,45)         59.3566         estimate D2E/DX2                !
 ! D95   D(27,26,44,46)        178.815          estimate D2E/DX2                !
 ! D96   D(27,26,44,47)        -60.2995         estimate D2E/DX2                !
 ! D97   D(32,26,44,45)        -60.4724         estimate D2E/DX2                !
 ! D98   D(32,26,44,46)         58.986          estimate D2E/DX2                !
 ! D99   D(32,26,44,47)        179.8715         estimate D2E/DX2                !
 ! D100  D(41,26,44,45)        178.4489         estimate D2E/DX2                !
 ! D101  D(41,26,44,46)        -62.0927         estimate D2E/DX2                !
 ! D102  D(41,26,44,47)         58.7928         estimate D2E/DX2                !
 ! D103  D(26,27,29,30)          2.6641         estimate D2E/DX2                !
 ! D104  D(26,27,29,31)       -177.8836         estimate D2E/DX2                !
 ! D105  D(28,27,29,30)        175.3912         estimate D2E/DX2                !
 ! D106  D(28,27,29,31)         -5.1564         estimate D2E/DX2                !
 ! D107  D(27,29,31,52)          0.5009         estimate D2E/DX2                !
 ! D108  D(27,29,31,57)        122.2954         estimate D2E/DX2                !
 ! D109  D(27,29,31,58)       -121.0366         estimate D2E/DX2                !
 ! D110  D(30,29,31,52)        179.9613         estimate D2E/DX2                !
 ! D111  D(30,29,31,57)        -58.2441         estimate D2E/DX2                !
 ! D112  D(30,29,31,58)         58.4238         estimate D2E/DX2                !
 ! D113  D(26,32,34,35)         11.1951         estimate D2E/DX2                !
 ! D114  D(26,32,34,36)        172.403          estimate D2E/DX2                !
 ! D115  D(33,32,34,35)       -168.353          estimate D2E/DX2                !
 ! D116  D(33,32,34,36)         -7.1451         estimate D2E/DX2                !
 ! D117  D(32,34,36,37)        -85.546          estimate D2E/DX2                !
 ! D118  D(32,34,36,42)         30.4308         estimate D2E/DX2                !
 ! D119  D(32,34,36,48)        151.1583         estimate D2E/DX2                !
 ! D120  D(35,34,36,37)         75.8235         estimate D2E/DX2                !
 ! D121  D(35,34,36,42)       -168.1998         estimate D2E/DX2                !
 ! D122  D(35,34,36,48)        -47.4722         estimate D2E/DX2                !
 ! D123  D(34,36,37,38)        -96.8857         estimate D2E/DX2                !
 ! D124  D(34,36,37,39)         79.8373         estimate D2E/DX2                !
 ! D125  D(42,36,37,38)        148.3607         estimate D2E/DX2                !
 ! D126  D(42,36,37,39)        -34.9163         estimate D2E/DX2                !
 ! D127  D(48,36,37,38)         25.6638         estimate D2E/DX2                !
 ! D128  D(48,36,37,39)       -157.6132         estimate D2E/DX2                !
 ! D129  D(34,36,48,49)        -60.992          estimate D2E/DX2                !
 ! D130  D(34,36,48,50)         59.2923         estimate D2E/DX2                !
 ! D131  D(34,36,48,51)        178.9956         estimate D2E/DX2                !
 ! D132  D(37,36,48,49)        179.0629         estimate D2E/DX2                !
 ! D133  D(37,36,48,50)        -60.6528         estimate D2E/DX2                !
 ! D134  D(37,36,48,51)         59.0505         estimate D2E/DX2                !
 ! D135  D(42,36,48,49)         57.4815         estimate D2E/DX2                !
 ! D136  D(42,36,48,50)        177.7657         estimate D2E/DX2                !
 ! D137  D(42,36,48,51)        -62.5309         estimate D2E/DX2                !
 ! D138  D(36,37,39,40)        -11.5056         estimate D2E/DX2                !
 ! D139  D(36,37,39,43)       -168.0336         estimate D2E/DX2                !
 ! D140  D(38,37,39,40)        165.2342         estimate D2E/DX2                !
 ! D141  D(38,37,39,43)          8.7062         estimate D2E/DX2                !
 ! D142  D(37,39,43,53)         59.5704         estimate D2E/DX2                !
 ! D143  D(37,39,43,68)        -59.7193         estimate D2E/DX2                !
 ! D144  D(37,39,43,69)       -179.6205         estimate D2E/DX2                !
 ! D145  D(40,39,43,53)        -96.5508         estimate D2E/DX2                !
 ! D146  D(40,39,43,68)        144.1595         estimate D2E/DX2                !
 ! D147  D(40,39,43,69)         24.2582         estimate D2E/DX2                !
 ! D148  D(39,43,53,54)         56.1677         estimate D2E/DX2                !
 ! D149  D(39,43,53,55)       -124.4349         estimate D2E/DX2                !
 ! D150  D(68,43,53,54)        174.4294         estimate D2E/DX2                !
 ! D151  D(68,43,53,55)         -6.1732         estimate D2E/DX2                !
 ! D152  D(69,43,53,54)        -64.6707         estimate D2E/DX2                !
 ! D153  D(69,43,53,55)        114.7268         estimate D2E/DX2                !
 ! D154  D(39,43,69,70)         58.0391         estimate D2E/DX2                !
 ! D155  D(39,43,69,71)        178.0358         estimate D2E/DX2                !
 ! D156  D(39,43,69,72)        -62.5268         estimate D2E/DX2                !
 ! D157  D(53,43,69,70)        178.8793         estimate D2E/DX2                !
 ! D158  D(53,43,69,71)        -61.1241         estimate D2E/DX2                !
 ! D159  D(53,43,69,72)         58.3134         estimate D2E/DX2                !
 ! D160  D(68,43,69,70)        -60.5274         estimate D2E/DX2                !
 ! D161  D(68,43,69,71)         59.4692         estimate D2E/DX2                !
 ! D162  D(68,43,69,72)        178.9067         estimate D2E/DX2                !
 ! D163  D(43,53,55,17)        178.5213         estimate D2E/DX2                !
 ! D164  D(43,53,55,56)         11.0752         estimate D2E/DX2                !
 ! D165  D(54,53,55,17)         -2.0968         estimate D2E/DX2                !
 ! D166  D(54,53,55,56)       -169.5429         estimate D2E/DX2                !
 --------------------------------------------------------------------------------
 Trust Radius=3.00D-01 FncErr=5.00D-06 GrdErr=5.00D-06 EigMax=2.50D+02 EigMin=1.00D-04
 Number of steps in this run=    373 maximum allowed number of steps=    432.
 GradGradGradGradGradGradGradGradGradGradGradGradGradGradGradGradGradGrad

 Leave Link  103 at Tue Feb 15 03:22:30 2022, MaxMem=  8589934592 cpu:               0.1 elap:               0.0
 (Enter /share/apps/g16.b01_avx2/g16/l202.exe)
 Stoichiometry    C21H37N7O7
 Framework group  C1[X(C21H37N7O7)]
 Deg. of freedom   210
 Full point group                 C1      NOp   1
 Largest Abelian subgroup         C1      NOp   1
 Largest concise Abelian subgroup C1      NOp   1
                         Standard orientation:                         
 ---------------------------------------------------------------------
 Center     Atomic      Atomic             Coordinates (Angstroms)
 Number     Number       Type             X           Y           Z
 ---------------------------------------------------------------------
      1          7           0       -4.419542   -1.381011    0.155485
      2          1           0       -4.203520   -0.455882   -0.211768
      3          6           0       -2.219303   -2.017303   -0.694104
      4          6           0       -3.482604   -2.362749    0.128852
      5          8           0       -3.614092   -3.472308    0.646819
      6          7           0       -1.017986   -2.459526    0.002880
      7          1           0       -0.553098   -3.305195   -0.312484
      8          6           0       -0.433494   -1.770282    0.999767
      9          8           0       -0.852821   -0.674069    1.409953
     10          6           0        0.830067   -2.441871    1.584705
     11          7           0        2.008749   -2.032062    0.818750
     12          1           0        2.474668   -1.170554    1.098125
     13          6           0        2.322350   -2.650382   -0.349409
     14          8           0        1.676352   -3.603015   -0.796974
     15          1           0       -2.158099   -0.934229   -0.832269
     16          1           0        0.728292   -3.523230    1.449824
     17          6           0        3.621530   -2.189632   -1.055564
     18          6           0       -2.299636   -2.712804   -2.058617
     19          1           0       -2.375579   -3.797540   -1.925016
     20          1           0       -3.186044   -2.374841   -2.603913
     21          1           0       -1.411597   -2.488132   -2.658986
     22          6           0        1.008473   -2.115456    3.064679
     23          1           0        1.188328   -1.047246    3.208551
     24          1           0        0.110540   -2.393563    3.624458
     25          1           0        1.862020   -2.670335    3.467609
     26          6           0       -1.466823    1.966778   -0.652658
     27          7           0       -2.541210    2.941930   -0.822443
     28          1           0       -2.267655    3.899403   -1.006439
     29          6           0       -3.846790    2.574883   -0.879436
     30          8           0       -4.215921    1.401516   -0.743836
     31          6           0       -4.847990    3.693707   -1.108562
     32          6           0       -0.337567    2.640914    0.130263
     33          8           0        0.196104    3.681079   -0.289033
     34          7           0        0.025002    2.020903    1.277867
     35          1           0       -0.335840    1.076672    1.461586
     36          6           0        1.195853    2.461547    2.038111
     37          6           0        2.418351    1.752343    1.424633
     38          8           0        2.899934    0.711458    1.891784
     39          7           0        2.883677    2.326709    0.283509
     40          1           0        2.292532    3.035853   -0.149176
     41          1           0       -1.873413    1.135629   -0.074020
     42          1           0        1.295636    3.537941    1.867302
     43          6           0        3.859126    1.628632   -0.547070
     44          6           0       -0.935347    1.460244   -2.004586
     45          1           0       -0.552986    2.299217   -2.595078
     46          1           0       -0.117688    0.746831   -1.864678
     47          1           0       -1.747254    0.977306   -2.558324
     48          6           0        1.034934    2.168874    3.525714
     49          1           0        0.165667    2.706894    3.916419
     50          1           0        0.894932    1.099598    3.704481
     51          1           0        1.925670    2.488185    4.075702
     52          1           0       -4.383700    4.679249   -1.210391
     53          6           0        3.273091    0.279885   -1.022418
     54          8           0        2.211317    0.229401   -1.638825
     55          7           0        4.021160   -0.820511   -0.719370
     56          1           0        4.788445   -0.692443   -0.074044
     57          1           0       -5.423137    3.469687   -2.012277
     58          1           0       -5.548341    3.711285   -0.267783
     59          6           0       -5.691639   -1.555129    0.835250
     60          1           0       -5.841451   -2.620820    1.020513
     61          1           0       -5.708234   -1.027952    1.798329
     62          1           0       -6.507727   -1.171293    0.213100
     63          6           0        3.551155   -2.434335   -2.568255
     64          1           0        2.813048   -1.774176   -3.027873
     65          1           0        4.531005   -2.247911   -3.020271
     66          1           0        3.257707   -3.469785   -2.753331
     67          1           0        4.404068   -2.838263   -0.640384
     68          1           0        4.751585    1.445463    0.064245
     69          6           0        4.221530    2.491504   -1.758482
     70          1           0        4.619712    3.458527   -1.433747
     71          1           0        4.979078    1.993826   -2.371869
     72          1           0        3.334885    2.658090   -2.378876
 ---------------------------------------------------------------------
 Rotational constants (GHZ):           0.1375866           0.0972618           0.0747638
 Leave Link  202 at Tue Feb 15 03:22:30 2022, MaxMem=  8589934592 cpu:               0.0 elap:               0.0
 (Enter /share/apps/g16.b01_avx2/g16/l301.exe)
 Standard basis: 6-31+G(d,p) (6D, 7F)
 Ernie: Thresh=  0.10000D-02 Tol=  0.10000D-05 Strict=F.
 There are   850 symmetry adapted cartesian basis functions of A   symmetry.
 There are   850 symmetry adapted basis functions of A   symmetry.
   850 basis functions,  1379 primitive gaussians,   850 cartesian basis functions
   134 alpha electrons      134 beta electrons
       nuclear repulsion energy      4349.2094555138 Hartrees.
 IExCor= 1009 DFT=T Ex+Corr=PBE1PBE ExCW=0 ScaHFX=  0.250000
 ScaDFX=  0.750000  0.750000  1.000000  1.000000 ScalE2=  1.000000  1.000000
 IRadAn=  99590 IRanWt=     -1 IRanGd=            0 ICorTp=0 IEmpDi=131
 NAtoms=   72 NActive=   72 NUniq=   72 SFac= 1.00D+00 NAtFMM=   60 NAOKFM=T Big=T
 Integral buffers will be    131072 words long.
 Raffenetti 2 integral format.
 Two-electron integral symmetry is turned on.
 R6Disp:  Grimme-D3 Dispersion energy=       -0.0646027566 Hartrees.
 Nuclear repulsion after empirical dispersion term =     4349.1448527572 Hartrees.
 ------------------------------------------------------------------------------
 Polarizable Continuum Model (PCM)
 =================================
 Model                : C-PCM.
 Atomic radii         : UFF (Universal Force Field).
 Polarization charges : Total charges.
 Charge compensation  : None.
 Solution method      : On-the-fly selection.
 Cavity type          : Scaled VdW (van der Waals Surface) (Alpha=1.100).
 Cavity algorithm     : GePol (No added spheres)
                        Default sphere list used, NSphG=   72.
                        Lebedev-Laikov grids with approx.  5.0 points / Ang**2.
                        Smoothing algorithm: York/Karplus (Gamma=1.0000).
                        Polarization charges: spherical gaussians, with
                                              point-specific exponents (IZeta= 3).
                        Self-potential: point-specific (ISelfS= 7).
                        Self-field    : sphere-specific E.n sum rule (ISelfD= 2).
 1st derivatives      : Analytical E(r).r(x)/FMM algorithm (CHGder, D1EAlg=3).
                        Cavity 1st derivative terms included.
 Solvent              : Water, Eps=  78.355300 Eps(inf)=   1.777849
 ------------------------------------------------------------------------------
 GePol: Number of generator spheres                  =      72
 GePol: Total number of spheres                      =      72
 GePol: Number of exposed spheres                    =      72 (100.00%)
 GePol: Number of points                             =    4600
 GePol: Average weight of points                     =       0.13
 GePol: Minimum weight of points                     =   0.12D-11
 GePol: Maximum weight of points                     =    0.20577
 GePol: Number of points with low weight             =     326
 GePol: Fraction of low-weight points (<1% of avg)   =       7.09%
 GePol: Cavity surface area                          =    575.840 Ang**2
 GePol: Cavity volume                                =    687.053 Ang**3
 Leave Link  301 at Tue Feb 15 03:22:30 2022, MaxMem=  8589934592 cpu:               0.7 elap:               0.0
 (Enter /share/apps/g16.b01_avx2/g16/l302.exe)
 NPDir=0 NMtPBC=     1 NCelOv=     1 NCel=       1 NClECP=     1 NCelD=      1
         NCelK=      1 NCelE2=     1 NClLst=     1 CellRange=     0.0.
 One-electron integrals computed using PRISM.
 One-electron integral symmetry used in STVInt
 NBasis=   850 RedAO= T EigKep=  4.14D-06  NBF=   850
 NBsUse=   850 1.00D-06 EigRej= -1.00D+00 NBFU=   850
 Precomputing XC quadrature grid using
 IXCGrd= 4 IRadAn=       99590 IRanWt=          -1 IRanGd=           0 AccXCQ= 0.00D+00.
 Generated NRdTot=       0 NPtTot=           0 NUsed=           0 NTot=          32
 NSgBfM=   827   824   827   827   827 MxSgAt=    72 MxSgA2=    72.
 Leave Link  302 at Tue Feb 15 03:22:31 2022, MaxMem=  8589934592 cpu:              19.9 elap:               0.8
 (Enter /share/apps/g16.b01_avx2/g16/l303.exe)
 DipDrv:  MaxL=1.
 Leave Link  303 at Tue Feb 15 03:22:31 2022, MaxMem=  8589934592 cpu:               1.5 elap:               0.1
 (Enter /share/apps/g16.b01_avx2/g16/l401.exe)
 ExpMin= 4.38D-02 ExpMax= 5.48D+03 ExpMxC= 8.25D+02 IAcc=4 IRadAn=    199590 AccDes= 0.00D+00
 Harris functional with IExCor= 1009 and IRadAn=  199590 diagonalized for initial guess.
 HarFok:  IExCor= 1009 AccDes= 0.00D+00 IRadAn=    199590 IDoV= 1 UseB2=F ITyADJ=14
 ICtDFT=  3500011 ScaDFX=  1.000000  1.000000  1.000000  1.000000
 FoFCou: FMM=F IPFlag=           0 FMFlag=      100000 FMFlg1=        2001
         NFxFlg=           0 DoJE=T BraDBF=F KetDBF=T FulRan=T
         wScrn=  0.000000 ICntrl=       500 IOpCl=  0 I1Cent=   200000004 NGrid=           0
         NMat0=    1 NMatS0=      1 NMatT0=    0 NMatD0=    1 NMtDS0=    0 NMtDT0=    0
 Petite list used in FoFCou.
 Harris En= -1731.11036392738    
 JPrj=0 DoOrth=F DoCkMO=F.
 Leave Link  401 at Tue Feb 15 03:22:39 2022, MaxMem=  8589934592 cpu:             202.1 elap:               8.4
 (Enter /share/apps/g16.b01_avx2/g16/l502.exe)
 Integral symmetry usage will be decided dynamically.
 Closed shell SCF:
 Using DIIS extrapolation, IDIIS=  1040.
 NGot=  8589934592 LenX=  8588460558 LenY=  8587737208
 Requested convergence on RMS density matrix=1.00D-08 within 128 cycles.
 Requested convergence on MAX density matrix=1.00D-06.
 Requested convergence on             energy=1.00D-06.
 No special actions if energy rises.
 Fock matrices will be formed incrementally for  20 cycles.

 Cycle   1  Pass 1  IDiag  1:
 FoFJK:  IHMeth= 1 ICntrl=       0 DoSepK=F KAlg= 0 I1Cent=           0 FoldK=F
 IRaf= 930000000 NMat=       1 IRICut=       1 DoRegI=T DoRafI=F ISym2E= 0 IDoP0=0 IntGTp=1.
 FoFCou: FMM=T IPFlag=           0 FMFlag=      100000 FMFlg1=        2001
         NFxFlg=           0 DoJE=F BraDBF=F KetDBF=F FulRan=T
         wScrn=  0.000000 ICntrl=         0 IOpCl=  0 I1Cent=           0 NGrid=           0
         NMat0=    1 NMatS0=      1 NMatT0=    0 NMatD0=    1 NMtDS0=    0 NMtDT0=    0
 Symmetry not used in FoFCou.
 FMM levels:  10  Number of levels for PrismC:   9
 Inv3:  Mode=1 IEnd=    63480000.
 Iteration    1 A*A^-1 deviation from unit magnitude is 3.89D-15 for   2657.
 Iteration    1 A*A^-1 deviation from orthogonality  is 2.00D-15 for   3718    333.
 Iteration    1 A^-1*A deviation from unit magnitude is 4.11D-15 for   2657.
 Iteration    1 A^-1*A deviation from orthogonality  is 3.11D-15 for   3657   2266.
 E= -1729.94129088414    
 DIIS: error= 1.21D-02 at cycle   1 NSaved=   1.
 NSaved= 1 IEnMin= 1 EnMin= -1729.94129088414     IErMin= 1 ErrMin= 1.21D-02
 ErrMax= 1.21D-02  0.00D+00 EMaxC= 1.00D-01 BMatC= 1.02D+00 BMatP= 1.02D+00
 IDIUse=3 WtCom= 8.79D-01 WtEn= 1.21D-01
 Coeff-Com:  0.100D+01
 Coeff-En:   0.100D+01
 Coeff:      0.100D+01
 Gap=     0.234 Goal=   None    Shift=    0.000
 GapD=    0.234 DampG=1.000 DampE=0.500 DampFc=0.5000 IDamp=-1.
 Damping current iteration by 5.00D-01
 RMSDP=1.07D-02 MaxDP=1.84D+00              OVMax= 2.11D-01

 Cycle   2  Pass 1  IDiag  1:
 RMSU=  5.35D-03    CP:  1.01D+00
 E= -1730.23034873104     Delta-E=       -0.289057846895 Rises=F Damp=T
 DIIS: error= 5.90D-03 at cycle   2 NSaved=   2.
 NSaved= 2 IEnMin= 2 EnMin= -1730.23034873104     IErMin= 2 ErrMin= 5.90D-03
 ErrMax= 5.90D-03  0.00D+00 EMaxC= 1.00D-01 BMatC= 1.28D-01 BMatP= 1.02D+00
 IDIUse=3 WtCom= 9.41D-01 WtEn= 5.90D-02
 Coeff-Com:  0.171D+00 0.829D+00
 Coeff-En:   0.275D+00 0.725D+00
 Coeff:      0.178D+00 0.822D+00
 Gap=     0.290 Goal=   None    Shift=    0.000
 RMSDP=5.97D-03 MaxDP=1.43D+00 DE=-2.89D-01 OVMax= 1.29D-01

 Cycle   3  Pass 1  IDiag  1:
 RMSU=  3.08D-03    CP:  8.16D-01  4.94D-01
 E= -1730.70252976220     Delta-E=       -0.472181031161 Rises=F Damp=F
 DIIS: error= 4.45D-03 at cycle   3 NSaved=   3.
 NSaved= 3 IEnMin= 3 EnMin= -1730.70252976220     IErMin= 3 ErrMin= 4.45D-03
 ErrMax= 4.45D-03  0.00D+00 EMaxC= 1.00D-01 BMatC= 1.04D-01 BMatP= 1.28D-01
 IDIUse=3 WtCom= 9.55D-01 WtEn= 4.45D-02
 Coeff-Com:  0.273D-01 0.469D+00 0.504D+00
 Coeff-En:   0.000D+00 0.000D+00 0.100D+01
 Coeff:      0.261D-01 0.448D+00 0.526D+00
 Gap=     0.258 Goal=   None    Shift=    0.000
 RMSDP=1.52D-03 MaxDP=2.19D-01 DE=-4.72D-01 OVMax= 4.83D-02

 Cycle   4  Pass 1  IDiag  1:
 RMSU=  1.46D-03    CP:  8.09D-01  5.59D-01  9.48D-01
 E= -1730.78034012193     Delta-E=       -0.077810359734 Rises=F Damp=F
 DIIS: error= 1.18D-03 at cycle   4 NSaved=   4.
 NSaved= 4 IEnMin= 4 EnMin= -1730.78034012193     IErMin= 4 ErrMin= 1.18D-03
 ErrMax= 1.18D-03  0.00D+00 EMaxC= 1.00D-01 BMatC= 1.12D-02 BMatP= 1.04D-01
 IDIUse=3 WtCom= 9.88D-01 WtEn= 1.18D-02
 Coeff-Com: -0.118D-01 0.715D-01 0.268D+00 0.672D+00
 Coeff-En:   0.000D+00 0.000D+00 0.849D-01 0.915D+00
 Coeff:     -0.116D-01 0.707D-01 0.266D+00 0.675D+00
 Gap=     0.251 Goal=   None    Shift=    0.000
 RMSDP=5.26D-04 MaxDP=5.90D-02 DE=-7.78D-02 OVMax= 1.50D-02

 Cycle   5  Pass 1  IDiag  1:
 RMSU=  3.34D-04    CP:  8.11D-01  5.50D-01  9.75D-01  7.33D-01
 E= -1730.78919307280     Delta-E=       -0.008852950870 Rises=F Damp=F
 DIIS: error= 3.01D-04 at cycle   5 NSaved=   5.
 NSaved= 5 IEnMin= 5 EnMin= -1730.78919307280     IErMin= 5 ErrMin= 3.01D-04
 ErrMax= 3.01D-04  0.00D+00 EMaxC= 1.00D-01 BMatC= 7.29D-04 BMatP= 1.12D-02
 IDIUse=3 WtCom= 9.97D-01 WtEn= 3.01D-03
 Coeff-Com: -0.675D-02 0.170D-01 0.114D+00 0.347D+00 0.529D+00
 Coeff-En:   0.000D+00 0.000D+00 0.000D+00 0.000D+00 0.100D+01
 Coeff:     -0.673D-02 0.169D-01 0.114D+00 0.346D+00 0.530D+00
 Gap=     0.253 Goal=   None    Shift=    0.000
 RMSDP=1.54D-04 MaxDP=2.57D-02 DE=-8.85D-03 OVMax= 3.39D-03

 Cycle   6  Pass 1  IDiag  1:
 RMSU=  9.90D-05    CP:  8.07D-01  5.46D-01  9.81D-01  7.26D-01  7.46D-01
 E= -1730.78980976635     Delta-E=       -0.000616693551 Rises=F Damp=F
 DIIS: error= 6.73D-05 at cycle   6 NSaved=   6.
 NSaved= 6 IEnMin= 6 EnMin= -1730.78980976635     IErMin= 6 ErrMin= 6.73D-05
 ErrMax= 6.73D-05  0.00D+00 EMaxC= 1.00D-01 BMatC= 3.59D-05 BMatP= 7.29D-04
 IDIUse=1 WtCom= 1.00D+00 WtEn= 0.00D+00
 Coeff-Com: -0.243D-02 0.296D-02 0.345D-01 0.112D+00 0.253D+00 0.600D+00
 Coeff:     -0.243D-02 0.296D-02 0.345D-01 0.112D+00 0.253D+00 0.600D+00
 Gap=     0.252 Goal=   None    Shift=    0.000
 RMSDP=3.36D-05 MaxDP=4.13D-03 DE=-6.17D-04 OVMax= 6.43D-04

 Cycle   7  Pass 1  IDiag  1:
 RMSU=  2.33D-05    CP:  8.07D-01  5.44D-01  9.83D-01  7.32D-01  7.48D-01
                    CP:  8.25D-01
 E= -1730.78983623763     Delta-E=       -0.000026471278 Rises=F Damp=F
 DIIS: error= 3.27D-05 at cycle   7 NSaved=   7.
 NSaved= 7 IEnMin= 7 EnMin= -1730.78983623763     IErMin= 7 ErrMin= 3.27D-05
 ErrMax= 3.27D-05  0.00D+00 EMaxC= 1.00D-01 BMatC= 3.53D-06 BMatP= 3.59D-05
 IDIUse=1 WtCom= 1.00D+00 WtEn= 0.00D+00
 Coeff-Com: -0.947D-03 0.713D-03 0.121D-01 0.402D-01 0.111D+00 0.326D+00
 Coeff-Com:  0.510D+00
 Coeff:     -0.947D-03 0.713D-03 0.121D-01 0.402D-01 0.111D+00 0.326D+00
 Coeff:      0.510D+00
 Gap=     0.252 Goal=   None    Shift=    0.000
 RMSDP=9.99D-06 MaxDP=2.00D-03 DE=-2.65D-05 OVMax= 2.97D-04

 Cycle   8  Pass 1  IDiag  1:
 RMSU=  8.50D-06    CP:  8.07D-01  5.44D-01  9.83D-01  7.33D-01  7.55D-01
                    CP:  8.14D-01  8.20D-01
 E= -1730.78983882246     Delta-E=       -0.000002584827 Rises=F Damp=F
 DIIS: error= 1.31D-05 at cycle   8 NSaved=   8.
 NSaved= 8 IEnMin= 8 EnMin= -1730.78983882246     IErMin= 8 ErrMin= 1.31D-05
 ErrMax= 1.31D-05  0.00D+00 EMaxC= 1.00D-01 BMatC= 4.89D-07 BMatP= 3.53D-06
 IDIUse=1 WtCom= 1.00D+00 WtEn= 0.00D+00
 Coeff-Com: -0.157D-03-0.279D-04 0.137D-02 0.449D-02 0.250D-01 0.860D-01
 Coeff-Com:  0.288D+00 0.595D+00
 Coeff:     -0.157D-03-0.279D-04 0.137D-02 0.449D-02 0.250D-01 0.860D-01
 Coeff:      0.288D+00 0.595D+00
 Gap=     0.252 Goal=   None    Shift=    0.000
 RMSDP=3.79D-06 MaxDP=3.85D-04 DE=-2.58D-06 OVMax= 1.28D-04

 Cycle   9  Pass 1  IDiag  1:
 RMSU=  3.08D-06    CP:  8.07D-01  5.44D-01  9.83D-01  7.32D-01  7.61D-01
                    CP:  8.09D-01  8.27D-01  8.80D-01
 E= -1730.78983916532     Delta-E=       -0.000000342864 Rises=F Damp=F
 DIIS: error= 3.59D-06 at cycle   9 NSaved=   9.
 NSaved= 9 IEnMin= 9 EnMin= -1730.78983916532     IErMin= 9 ErrMin= 3.59D-06
 ErrMax= 3.59D-06  0.00D+00 EMaxC= 1.00D-01 BMatC= 5.83D-08 BMatP= 4.89D-07
 IDIUse=1 WtCom= 1.00D+00 WtEn= 0.00D+00
 Coeff-Com:  0.305D-04-0.103D-03-0.726D-03-0.260D-02-0.316D-04 0.200D-02
 Coeff-Com:  0.833D-01 0.320D+00 0.598D+00
 Coeff:      0.305D-04-0.103D-03-0.726D-03-0.260D-02-0.316D-04 0.200D-02
 Coeff:      0.833D-01 0.320D+00 0.598D+00
 Gap=     0.252 Goal=   None    Shift=    0.000
 RMSDP=1.56D-06 MaxDP=2.52D-04 DE=-3.43D-07 OVMax= 2.72D-05

 Cycle  10  Pass 1  IDiag  1:
 RMSU=  9.28D-07    CP:  8.07D-01  5.44D-01  9.83D-01  7.32D-01  7.62D-01
                    CP:  8.14D-01  8.41D-01  8.84D-01  8.43D-01
 E= -1730.78983921476     Delta-E=       -0.000000049441 Rises=F Damp=F
 DIIS: error= 4.03D-07 at cycle  10 NSaved=  10.
 NSaved=10 IEnMin=10 EnMin= -1730.78983921476     IErMin=10 ErrMin= 4.03D-07
 ErrMax= 4.03D-07  0.00D+00 EMaxC= 1.00D-01 BMatC= 1.33D-09 BMatP= 5.83D-08
 IDIUse=1 WtCom= 1.00D+00 WtEn= 0.00D+00
 Coeff-Com:  0.199D-04-0.331D-04-0.318D-03-0.117D-02-0.130D-02-0.504D-02
 Coeff-Com:  0.108D-01 0.710D-01 0.188D+00 0.738D+00
 Coeff:      0.199D-04-0.331D-04-0.318D-03-0.117D-02-0.130D-02-0.504D-02
 Coeff:      0.108D-01 0.710D-01 0.188D+00 0.738D+00
 Gap=     0.252 Goal=   None    Shift=    0.000
 RMSDP=4.16D-07 MaxDP=6.52D-05 DE=-4.94D-08 OVMax= 6.10D-06

 Cycle  11  Pass 1  IDiag  1:
 RMSU=  2.66D-07    CP:  8.07D-01  5.44D-01  9.83D-01  7.32D-01  7.62D-01
                    CP:  8.13D-01  8.48D-01  9.05D-01  8.46D-01  8.96D-01
 E= -1730.78983921585     Delta-E=       -0.000000001084 Rises=F Damp=F
 DIIS: error= 2.51D-07 at cycle  11 NSaved=  11.
 NSaved=11 IEnMin=11 EnMin= -1730.78983921585     IErMin=11 ErrMin= 2.51D-07
 ErrMax= 2.51D-07  0.00D+00 EMaxC= 1.00D-01 BMatC= 3.88D-10 BMatP= 1.33D-09
 IDIUse=1 WtCom= 1.00D+00 WtEn= 0.00D+00
 Coeff-Com:  0.907D-05-0.116D-04-0.125D-03-0.477D-03-0.686D-03-0.301D-02
 Coeff-Com:  0.338D-03 0.176D-01 0.612D-01 0.416D+00 0.509D+00
 Coeff:      0.907D-05-0.116D-04-0.125D-03-0.477D-03-0.686D-03-0.301D-02
 Coeff:      0.338D-03 0.176D-01 0.612D-01 0.416D+00 0.509D+00
 Gap=     0.252 Goal=   None    Shift=    0.000
 RMSDP=9.40D-08 MaxDP=8.76D-06 DE=-1.08D-09 OVMax= 3.28D-06

 Cycle  12  Pass 1  IDiag  1:
 RMSU=  6.93D-08    CP:  8.07D-01  5.44D-01  9.83D-01  7.32D-01  7.62D-01
                    CP:  8.13D-01  8.48D-01  9.07D-01  8.52D-01  9.38D-01
                    CP:  8.81D-01
 E= -1730.78983921603     Delta-E=       -0.000000000186 Rises=F Damp=F
 DIIS: error= 1.20D-07 at cycle  12 NSaved=  12.
 NSaved=12 IEnMin=12 EnMin= -1730.78983921603     IErMin=12 ErrMin= 1.20D-07
 ErrMax= 1.20D-07  0.00D+00 EMaxC= 1.00D-01 BMatC= 4.73D-11 BMatP= 3.88D-10
 IDIUse=1 WtCom= 1.00D+00 WtEn= 0.00D+00
 Coeff-Com:  0.122D-05-0.138D-06-0.645D-05-0.418D-04-0.114D-03-0.738D-03
 Coeff-Com: -0.191D-02-0.397D-02-0.362D-02 0.882D-01 0.280D+00 0.643D+00
 Coeff:      0.122D-05-0.138D-06-0.645D-05-0.418D-04-0.114D-03-0.738D-03
 Coeff:     -0.191D-02-0.397D-02-0.362D-02 0.882D-01 0.280D+00 0.643D+00
 Gap=     0.252 Goal=   None    Shift=    0.000
 RMSDP=4.39D-08 MaxDP=6.54D-06 DE=-1.86D-10 OVMax= 1.19D-06

 Cycle  13  Pass 1  IDiag  1:
 RMSU=  2.66D-08    CP:  8.07D-01  5.44D-01  9.83D-01  7.32D-01  7.62D-01
                    CP:  8.13D-01  8.49D-01  9.06D-01  8.58D-01  9.63D-01
                    CP:  9.03D-01  8.46D-01
 E= -1730.78983921604     Delta-E=       -0.000000000010 Rises=F Damp=F
 DIIS: error= 3.06D-08 at cycle  13 NSaved=  13.
 NSaved=13 IEnMin=13 EnMin= -1730.78983921604     IErMin=13 ErrMin= 3.06D-08
 ErrMax= 3.06D-08  0.00D+00 EMaxC= 1.00D-01 BMatC= 6.26D-12 BMatP= 4.73D-11
 IDIUse=1 WtCom= 1.00D+00 WtEn= 0.00D+00
 Coeff-Com: -0.228D-06 0.106D-05 0.103D-04 0.265D-04 0.129D-04-0.963D-04
 Coeff-Com: -0.112D-02-0.411D-02-0.868D-02 0.596D-02 0.103D+00 0.360D+00
 Coeff-Com:  0.545D+00
 Coeff:     -0.228D-06 0.106D-05 0.103D-04 0.265D-04 0.129D-04-0.963D-04
 Coeff:     -0.112D-02-0.411D-02-0.868D-02 0.596D-02 0.103D+00 0.360D+00
 Coeff:      0.545D+00
 Gap=     0.252 Goal=   None    Shift=    0.000
 RMSDP=1.66D-08 MaxDP=2.46D-06 DE=-1.00D-11 OVMax= 3.64D-07

 Cycle  14  Pass 1  IDiag  1:
 RMSU=  9.85D-09    CP:  8.07D-01  5.44D-01  9.83D-01  7.32D-01  7.62D-01
                    CP:  8.13D-01  8.49D-01  9.06D-01  8.58D-01  9.67D-01
                    CP:  9.28D-01  8.68D-01  8.55D-01
 E= -1730.78983921603     Delta-E=        0.000000000011 Rises=F Damp=F
 DIIS: error= 8.01D-09 at cycle  14 NSaved=  14.
 NSaved=14 IEnMin=13 EnMin= -1730.78983921604     IErMin=14 ErrMin= 8.01D-09
 ErrMax= 8.01D-09  0.00D+00 EMaxC= 1.00D-01 BMatC= 4.28D-13 BMatP= 6.26D-12
 IDIUse=1 WtCom= 1.00D+00 WtEn= 0.00D+00
 Coeff-Com: -0.190D-06 0.436D-06 0.555D-05 0.157D-04 0.180D-04 0.276D-04
 Coeff-Com: -0.329D-03-0.148D-02-0.363D-02-0.602D-02 0.202D-01 0.103D+00
 Coeff-Com:  0.257D+00 0.632D+00
 Coeff:     -0.190D-06 0.436D-06 0.555D-05 0.157D-04 0.180D-04 0.276D-04
 Coeff:     -0.329D-03-0.148D-02-0.363D-02-0.602D-02 0.202D-01 0.103D+00
 Coeff:      0.257D+00 0.632D+00
 Gap=     0.252 Goal=   None    Shift=    0.000
 RMSDP=4.91D-09 MaxDP=9.10D-07 DE= 1.09D-11 OVMax= 9.83D-08

 Error on total polarization charges =  0.02016
 SCF Done:  E(RPBE1PBE) =  -1730.78983922     A.U. after   14 cycles
            NFock= 14  Conv=0.49D-08     -V/T= 2.0091
 KE= 1.715225892105D+03 PE=-1.273569900227D+04 EE= 4.940538418196D+03
 Leave Link  502 at Tue Feb 15 03:26:00 2022, MaxMem=  8589934592 cpu:            4772.4 elap:             200.8
 (Enter /share/apps/g16.b01_avx2/g16/l601.exe)
 Copying SCF densities to generalized density rwf, IOpCl= 0 IROHF=0.

 **********************************************************************

            Population analysis using the SCF Density.

 **********************************************************************

 Orbital symmetries:
       Occupied  (A) (A) (A) (A) (A) (A) (A) (A) (A) (A) (A) (A)
                 (A) (A) (A) (A) (A) (A) (A) (A) (A) (A) (A) (A)
                 (A) (A) (A) (A) (A) (A) (A) (A) (A) (A) (A) (A)
                 (A) (A) (A) (A) (A) (A) (A) (A) (A) (A) (A) (A)
                 (A) (A) (A) (A) (A) (A) (A) (A) (A) (A) (A) (A)
                 (A) (A) (A) (A) (A) (A) (A) (A) (A) (A) (A) (A)
                 (A) (A) (A) (A) (A) (A) (A) (A) (A) (A) (A) (A)
                 (A) (A) (A) (A) (A) (A) (A) (A) (A) (A) (A) (A)
                 (A) (A) (A) (A) (A) (A) (A) (A) (A) (A) (A) (A)
                 (A) (A) (A) (A) (A) (A) (A) (A) (A) (A) (A) (A)
                 (A) (A) (A) (A) (A) (A) (A) (A) (A) (A) (A) (A)
                 (A) (A)
       Virtual   (A) (A) (A) (A) (A) (A) (A) (A) (A) (A) (A) (A)
                 (A) (A) (A) (A) (A) (A) (A) (A) (A) (A) (A) (A)
                 (A) (A) (A) (A) (A) (A) (A) (A) (A) (A) (A) (A)
                 (A) (A) (A) (A) (A) (A) (A) (A) (A) (A) (A) (A)
                 (A) (A) (A) (A) (A) (A) (A) (A) (A) (A) (A) (A)
                 (A) (A) (A) (A) (A) (A) (A) (A) (A) (A) (A) (A)
                 (A) (A) (A) (A) (A) (A) (A) (A) (A) (A) (A) (A)
                 (A) (A) (A) (A) (A) (A) (A) (A) (A) (A) (A) (A)
                 (A) (A) (A) (A) (A) (A) (A) (A) (A) (A) (A) (A)
                 (A) (A) (A) (A) (A) (A) (A) (A) (A) (A) (A) (A)
                 (A) (A) (A) (A) (A) (A) (A) (A) (A) (A) (A) (A)
                 (A) (A) (A) (A) (A) (A) (A) (A) (A) (A) (A) (A)
                 (A) (A) (A) (A) (A) (A) (A) (A) (A) (A) (A) (A)
                 (A) (A) (A) (A) (A) (A) (A) (A) (A) (A) (A) (A)
                 (A) (A) (A) (A) (A) (A) (A) (A) (A) (A) (A) (A)
                 (A) (A) (A) (A) (A) (A) (A) (A) (A) (A) (A) (A)
                 (A) (A) (A) (A) (A) (A) (A) (A) (A) (A) (A) (A)
                 (A) (A) (A) (A) (A) (A) (A) (A) (A) (A) (A) (A)
                 (A) (A) (A) (A) (A) (A) (A) (A) (A) (A) (A) (A)
                 (A) (A) (A) (A) (A) (A) (A) (A) (A) (A) (A) (A)
                 (A) (A) (A) (A) (A) (A) (A) (A) (A) (A) (A) (A)
                 (A) (A) (A) (A) (A) (A) (A) (A) (A) (A) (A) (A)
                 (A) (A) (A) (A) (A) (A) (A) (A) (A) (A) (A) (A)
                 (A) (A) (A) (A) (A) (A) (A) (A) (A) (A) (A) (A)
                 (A) (A) (A) (A) (A) (A) (A) (A) (A) (A) (A) (A)
                 (A) (A) (A) (A) (A) (A) (A) (A) (A) (A) (A) (A)
                 (A) (A) (A) (A) (A) (A) (A) (A) (A) (A) (A) (A)
                 (A) (A) (A) (A) (A) (A) (A) (A) (A) (A) (A) (A)
                 (A) (A) (A) (A) (A) (A) (A) (A) (A) (A) (A) (A)
                 (A) (A) (A) (A) (A) (A) (A) (A) (A) (A) (A) (A)
                 (A) (A) (A) (A) (A) (A) (A) (A) (A) (A) (A) (A)
                 (A) (A) (A) (A) (A) (A) (A) (A) (A) (A) (A) (A)
                 (A) (A) (A) (A) (A) (A) (A) (A) (A) (A) (A) (A)
                 (A) (A) (A) (A) (A) (A) (A) (A) (A) (A) (A) (A)
                 (A) (A) (A) (A) (A) (A) (A) (A) (A) (A) (A) (A)
                 (A) (A) (A) (A) (A) (A) (A) (A) (A) (A) (A) (A)
                 (A) (A) (A) (A) (A) (A) (A) (A) (A) (A) (A) (A)
                 (A) (A) (A) (A) (A) (A) (A) (A) (A) (A) (A) (A)
                 (A) (A) (A) (A) (A) (A) (A) (A) (A) (A) (A) (A)
                 (A) (A) (A) (A) (A) (A) (A) (A) (A) (A) (A) (A)
                 (A) (A) (A) (A) (A) (A) (A) (A) (A) (A) (A) (A)
                 (A) (A) (A) (A) (A) (A) (A) (A) (A) (A) (A) (A)
                 (A) (A) (A) (A) (A) (A) (A) (A) (A) (A) (A) (A)
                 (A) (A) (A) (A) (A) (A) (A) (A) (A) (A) (A) (A)
                 (A) (A) (A) (A) (A) (A) (A) (A) (A) (A) (A) (A)
                 (A) (A) (A) (A) (A) (A) (A) (A) (A) (A) (A) (A)
                 (A) (A) (A) (A) (A) (A) (A) (A) (A) (A) (A) (A)
                 (A) (A) (A) (A) (A) (A) (A) (A) (A) (A) (A) (A)
                 (A) (A) (A) (A) (A) (A) (A) (A) (A) (A) (A) (A)
                 (A) (A) (A) (A) (A) (A) (A) (A) (A) (A) (A) (A)
                 (A) (A) (A) (A) (A) (A) (A) (A) (A) (A) (A) (A)
                 (A) (A) (A) (A) (A) (A) (A) (A) (A) (A) (A) (A)
                 (A) (A) (A) (A) (A) (A) (A) (A) (A) (A) (A) (A)
                 (A) (A) (A) (A) (A) (A) (A) (A) (A) (A) (A) (A)
                 (A) (A) (A) (A) (A) (A) (A) (A) (A) (A) (A) (A)
                 (A) (A) (A) (A) (A) (A) (A) (A) (A) (A) (A) (A)
                 (A) (A) (A) (A) (A) (A) (A) (A) (A) (A) (A) (A)
                 (A) (A) (A) (A) (A) (A) (A) (A) (A) (A) (A) (A)
                 (A) (A) (A) (A) (A) (A) (A) (A) (A) (A) (A) (A)
                 (A) (A) (A) (A) (A) (A) (A) (A)
 The electronic state is 1-A.
 Alpha  occ. eigenvalues --  -19.22596 -19.22378 -19.22284 -19.21933 -19.21841
 Alpha  occ. eigenvalues --  -19.21726 -19.20831 -14.44928 -14.44679 -14.44604
 Alpha  occ. eigenvalues --  -14.44592 -14.44492 -14.44254 -14.43241 -10.35861
 Alpha  occ. eigenvalues --  -10.35854 -10.35779 -10.35777 -10.35621 -10.35591
 Alpha  occ. eigenvalues --  -10.34495 -10.30195 -10.30068 -10.29776 -10.29712
 Alpha  occ. eigenvalues --  -10.29670 -10.29479 -10.26224 -10.24311 -10.24169
 Alpha  occ. eigenvalues --  -10.24079 -10.23665 -10.23505 -10.23170 -10.23007
 Alpha  occ. eigenvalues --   -1.09605  -1.09005  -1.08866  -1.08424  -1.08126
 Alpha  occ. eigenvalues --   -1.08036  -1.07351  -0.97663  -0.97444  -0.97093
 Alpha  occ. eigenvalues --   -0.96775  -0.96407  -0.95750  -0.95130  -0.83083
 Alpha  occ. eigenvalues --   -0.82386  -0.81314  -0.79950  -0.78972  -0.78365
 Alpha  occ. eigenvalues --   -0.75435  -0.73347  -0.70188  -0.69908  -0.69125
 Alpha  occ. eigenvalues --   -0.68011  -0.66536  -0.65067  -0.63597  -0.62101
 Alpha  occ. eigenvalues --   -0.62010  -0.61541  -0.60669  -0.60283  -0.60118
 Alpha  occ. eigenvalues --   -0.57344  -0.56649  -0.56114  -0.54606  -0.53431
 Alpha  occ. eigenvalues --   -0.53348  -0.52318  -0.51170  -0.50849  -0.50640
 Alpha  occ. eigenvalues --   -0.50025  -0.49221  -0.48920  -0.48135  -0.47970
 Alpha  occ. eigenvalues --   -0.47192  -0.46793  -0.46415  -0.45942  -0.45500
 Alpha  occ. eigenvalues --   -0.45382  -0.44899  -0.44568  -0.43970  -0.43889
 Alpha  occ. eigenvalues --   -0.43716  -0.43080  -0.42402  -0.42284  -0.41751
 Alpha  occ. eigenvalues --   -0.41348  -0.41186  -0.41067  -0.40926  -0.40581
 Alpha  occ. eigenvalues --   -0.40126  -0.40033  -0.39573  -0.39320  -0.39115
 Alpha  occ. eigenvalues --   -0.38882  -0.38737  -0.38518  -0.38391  -0.38349
 Alpha  occ. eigenvalues --   -0.37949  -0.37812  -0.37660  -0.37452  -0.37290
 Alpha  occ. eigenvalues --   -0.31672  -0.31612  -0.31287  -0.30679  -0.30162
 Alpha  occ. eigenvalues --   -0.30015  -0.29107  -0.28164  -0.27999  -0.27906
 Alpha  occ. eigenvalues --   -0.27712  -0.27398  -0.27007  -0.26914
 Alpha virt. eigenvalues --   -0.01699  -0.00707  -0.00416   0.00071   0.00455
 Alpha virt. eigenvalues --    0.00758   0.01289   0.01469   0.01545   0.01620
 Alpha virt. eigenvalues --    0.02163   0.02750   0.02919   0.03287   0.03457
 Alpha virt. eigenvalues --    0.03591   0.04445   0.04487   0.04764   0.05013
 Alpha virt. eigenvalues --    0.05487   0.05705   0.05891   0.06073   0.06412
 Alpha virt. eigenvalues --    0.06729   0.06984   0.07419   0.07561   0.07638
 Alpha virt. eigenvalues --    0.07775   0.08063   0.08325   0.08667   0.08897
 Alpha virt. eigenvalues --    0.09081   0.09565   0.09866   0.10012   0.10140
 Alpha virt. eigenvalues --    0.10332   0.10610   0.10878   0.10986   0.11660
 Alpha virt. eigenvalues --    0.11751   0.11961   0.12109   0.12299   0.12405
 Alpha virt. eigenvalues --    0.12648   0.12747   0.13049   0.13451   0.13873
 Alpha virt. eigenvalues --    0.13914   0.14356   0.14534   0.14691   0.14842
 Alpha virt. eigenvalues --    0.15117   0.15209   0.15497   0.15867   0.16106
 Alpha virt. eigenvalues --    0.16581   0.16691   0.16942   0.17055   0.17122
 Alpha virt. eigenvalues --    0.17285   0.17929   0.17960   0.18189   0.18365
 Alpha virt. eigenvalues --    0.18489   0.18827   0.19051   0.19111   0.19530
 Alpha virt. eigenvalues --    0.19803   0.19927   0.20094   0.20206   0.20291
 Alpha virt. eigenvalues --    0.20498   0.20714   0.20901   0.21196   0.21294
 Alpha virt. eigenvalues --    0.21450   0.21833   0.22028   0.22082   0.22211
[...]
 2201,0.00010459,-0.00019833,-0.00016367,0.00008490,0.00014598,0.000125
 69,0.00000158,0.00000161,-0.00000118,0.00000113,0.00001028,0.00000557,
 -0.00000119,-0.00030590,-0.00018198,0.00013150,0.00000198,-0.00000156,
 -0.00000059,-0.00000047,0.00000031,0.00000021,0.00000071,0.00000037,0.
 00000111,-0.00000019,0.00000040,-0.00000036,0.00001532,0.00000351,0.00
 000075,-0.00000223,-0.00000089,0.00000057,0.00000095,-0.00000082,-0.00
 000830,-0.00000173,0.00000001,0.00000018,0.00000026,0.00000091,0.00000
 333,0.00000412,-0.00000496,-0.00000465,0.00000119,0.00000007,0.0000007
 0,-0.00000337,-0.00000124,-0.00000001,0.00000127,0.00000057,-0.0000003
 8,-0.00000004,-0.00000027,0.00000038,0.00000555,-0.00001015,0.00002603
 ,0.00000133,0.00000850,-0.00001181,-0.00001627,-0.00000067,-0.00000087
 ,-0.00000150,0.00001098,-0.00000028,0.00001599,-0.00002170,0.00005328,
 -0.00035973,0.00056986,-0.00036391,0.00023731,-0.00037078,-0.00012874,
 -0.00134573,-0.00020689,0.00224318,0.00050174,-0.00030304,0.00011670,-
 0.00000013,0.00000007,-0.00000035,-0.00000465,-0.00000704,0.00000471,0
 .01132997,0.02877541,0.00572229,0.00000389,0.00001245,-0.00000152,0.00
 000186,-0.00000273,-0.00000012,-0.00003210,-0.00000167,-0.00000502,0.0
 0000751,-0.00000575,0.00000032,-0.00001854,0.00001591,0.00000024,-0.00
 000146,-0.00000345,0.00001139,-0.00000192,-0.00000228,0.00000207,0.000
 00144,0.00000059,0.00000057,-0.00000005,-0.00000004,0.00000001,-0.0004
 5832,-0.00023657,-0.00627879,0.00115735,0.00032970,0.00158314,-0.00000
 127,0.00143491,0.00062430,0.00015779,0.00002318,-0.00005295,0.00000015
 ,-0.00000011,0.00000007,0.00000006,-0.00000003,0.,-0.00000079,-0.00000
 050,0.00000044,0.00000021,0.00000016,-0.00000013,0.00000025,0.00000007
 ,-0.00000029,0.00000035,-0.00000008,-0.00000017,0.00004189,0.00018196,
 -0.00001100,-0.00001383,-0.00001791,-0.00003286,-0.00001394,-0.0000070
 1,0.00000035,-0.00000695,0.00002758,0.00006893,0.00001184,0.00010117,0
 .00001442,-0.00028420,-0.00061936,0.00122614,-0.02781564,-0.07509495,-
 0.06999754,0.02801607,0.07579992,0.07482836,-0.00000124,-0.00000140,0.
 00000032,0.00000116,0.00000225,-0.00000029,0.00000107,0.00000120,0.000
 00167,0.00000124,0.00000150,-0.00000206,-0.00000126,-0.00000184,0.0000
 0120,-0.00000143,-0.00000445,-0.00000927,-0.00000076,0.00000145,0.0000
 0036,-0.00000250,0.00001253,0.00001393,-0.00000088,-0.00002155,-0.0000
 0376,0.00000145,0.00000266,0.00000111,0.00001698,-0.00001221,-0.000024
 92,-0.00000146,0.00005437,0.00002606,-0.00001517,0.00001258,0.00001632
 ,0.00000410,-0.00000324,-0.00000957,-0.00000035,0.00000082,0.00000044,
 -0.00000067,-0.00000016,-0.00000137,0.00000985,-0.00004494,0.00002024,
 0.00000002,0.00000018,0.00000085,0.00000002,-0.00000032,-0.00000032,-0
 .00000013,-0.00000006,-0.00000029,0.00000037,0.00000008,0.00000002,-0.
 00000170,0.00000451,0.00000435,0.00000352,0.00000260,-0.00000715,-0.00
 000126,-0.00000409,-0.00000038,0.00000028,-0.00000193,0.00000020,0.000
 01989,-0.00000765,-0.00000241,-0.00001772,-0.00000753,-0.00000611,0.00
 000516,-0.00000039,0.00000261,0.00001892,0.00001147,0.00000097,-0.0000
 0887,-0.00000917,-0.00000089,-0.00000234,-0.00000054,0.00000009,0.0000
 4757,-0.00001203,0.00004465,-0.00007368,0.00002982,0.00000099,-0.00010
 967,0.00002232,-0.00001026,0.00000742,0.00002294,-0.00000810,0.0000358
 4,-0.00012920,-0.00000144,0.00024409,0.00081844,-0.00047875,0.00006113
 ,-0.00037415,0.00020295,0.00080747,-0.00078668,0.00137537,0.00025967,-
 0.00034351,-0.00040190,-0.00000095,0.00000039,-0.00000114,0.00000117,-
 0.00000879,-0.00000545,-0.00461143,0.00189641,0.00069178,-0.00001129,-
 0.00000099,-0.00000439,0.00000491,0.00000022,0.00000184,0.00000222,0.0
 0000405,0.00000272,-0.00000094,-0.00000147,-0.00000394,-0.00004261,0.0
 0002138,-0.00000975,-0.00000660,-0.00000202,0.00001982,0.00000420,-0.0
 0000391,0.00000094,0.00000330,-0.00000042,0.00000125,0.00000039,0.0000
 0007,0.00000009,-0.00030556,0.00041996,0.00072819,-0.00014125,-0.00042
 599,-0.00019460,0.00022081,-0.00025202,-0.00022061,-0.00001031,0.00000
 666,0.00006760,-0.00000057,0.00000039,-0.00000024,-0.00000077,0.000000
 64,-0.00000014,0.00000066,0.00000018,-0.00000018,-0.00000023,-0.000000
 14,0.00000010,-0.00000013,-0.00000005,0.00000015,-0.00000003,0.0000000
 8,0.00000004,-0.00000481,0.00000018,-0.00000880,0.00000019,-0.00000078
 ,0.00000265,0.00000187,-0.00000118,0.00000147,0.00000017,0.00000228,0.
 00000089,-0.00000005,-0.00000233,-0.00000293,0.00041799,-0.00032515,0.
 00001270,-0.18408849,0.08542868,0.11175144,0.00846543,-0.00486352,-0.0
 0751240,0.19483981,0.00000058,-0.00000083,-0.00000016,0.00000038,0.000
 00146,-0.00000030,-0.00000169,0.00000104,-0.00000029,-0.00000097,0.000
 00015,0.00000020,0.00000038,-0.00000041,0.00000024,0.00000581,-0.00000
 564,-0.00000637,-0.00000815,0.00000142,0.00000065,-0.00001098,0.000018
 77,0.00000861,0.00000465,-0.00002539,-0.00000407,-0.00000890,-0.000004
 34,0.00000970,0.00002207,0.00000264,-0.00004667,-0.00000873,0.00003584
 ,0.00003904,-0.00007455,-0.00000870,0.00004939,0.00005292,0.00003218,-
 0.00000899,0.00000083,0.00000029,0.00000058,0.00000216,0.00000155,-0.0
 0000099,-0.00000040,-0.00011091,-0.00001727,0.00000062,-0.00000014,0.0
 0000035,-0.00000014,-0.00000004,-0.00000013,0.00000016,0.00000004,0.00
 000012,0.00000029,0.00000013,-0.00000010,0.00000421,0.00000388,0.00000
 238,0.00000091,0.00000229,-0.00000409,-0.00000048,-0.00000262,-0.00000
 255,-0.00000040,-0.00000143,0.00000016,0.00001425,-0.00000278,-0.00000
 289,-0.00001029,-0.00000678,-0.00000569,0.00000292,-0.00000015,0.00000
 164,0.00000955,0.00000717,-0.00000001,-0.00000444,-0.00000526,-0.00000
 010,-0.00000158,-0.00000039,0.00000035,0.00002121,-0.00008298,0.000082
 73,-0.00000416,0.00006037,-0.00003504,-0.00006810,0.00004216,-0.000039
 05,0.00000200,0.00002130,-0.00000753,0.00002829,-0.00022753,0.00027514
 ,-0.00082588,0.00126376,0.00027342,0.00013028,-0.00020975,-0.00012461,
 -0.00097890,-0.00220099,0.00455482,-0.00029177,-0.00034024,0.00026280,
 -0.00000011,0.00000125,-0.00000070,0.00001800,-0.00001441,-0.00001303,
 -0.01477541,0.00848219,0.00997414,-0.00000733,0.00000282,-0.00000309,0
 .00000168,-0.00000022,-0.00000076,-0.00000974,0.00000100,0.00000028,0.
 00000265,-0.00000237,-0.00000359,-0.00011553,0.00006234,0.00000665,-0.
 00001214,-0.00000837,0.00004855,0.00000200,-0.00000611,0.00000157,0.00
 000621,0.00000095,-0.00000222,0.00000019,0.00000007,0.00000005,-0.0008
 5877,0.00038457,0.00015234,0.00016060,-0.00001695,-0.00008231,0.000011
 76,0.00026725,0.00002558,0.00005032,-0.00000794,0.00005880,-0.00000032
 ,0.00000023,-0.00000009,-0.00000051,0.00000045,-0.00000013,0.00000003,
 -0.00000009,0.00000001,-0.00000004,-0.00000001,0.00000004,-0.00000002,
 -0.00000005,0.,0.00000006,0.,-0.00000004,0.00001730,0.00005247,-0.0000
 0257,-0.00000138,0.00000099,-0.00000404,-0.00000047,0.00000502,0.00000
 242,-0.00000062,0.00000912,0.00001695,0.00000282,0.00001805,-0.0000030
 9,0.00026486,0.00062634,-0.00059520,0.08736787,-0.10062543,-0.06972618
 ,0.02109571,-0.01029582,-0.01499198,-0.09195845,0.10488939,0.00000264,
 0.00000166,-0.00000096,-0.00000192,-0.00000378,0.00000064,-0.00000362,
 -0.00000072,-0.00000262,-0.00000356,-0.00000313,0.00000443,0.00000275,
 0.00000350,-0.00000244,0.00000458,0.00001027,0.00001830,0.00000080,-0.
 00000296,-0.00000004,0.00000214,-0.00002626,-0.00002866,0.00000279,0.0
 0004426,0.00000815,-0.00000619,-0.00000083,0.00000260,-0.00002724,0.00
 004779,0.00005353,0.00000098,-0.00012986,-0.00005270,0.00003559,-0.000
 02331,-0.00005994,-0.00000887,0.00001148,0.00002546,0.00000069,-0.0000
 0135,-0.00000082,0.00000276,0.00000165,0.00000153,-0.00002607,0.000102
 77,-0.00008784,0.00000119,0.00000013,-0.00000117,-0.00000011,0.0000006
 4,0.00000051,0.00000036,0.00000011,0.00000069,-0.00000016,0.00000009,0
 .00000014,0.00000271,-0.00000994,-0.00000733,-0.00000662,-0.00000754,0
 .00001335,0.00000261,0.00000767,0.00000030,-0.00000063,0.00000465,-0.0
 0000013,-0.00003511,0.00000553,0.00001069,0.00003568,0.00001484,0.0000
 1298,-0.00000758,0.00000118,-0.00000529,-0.00003392,-0.00002219,-0.000
 00076,0.00001570,0.00001633,0.00000080,0.00000500,0.00000130,-0.000000
 48,-0.00006523,0.00014645,-0.00016637,0.00005972,-0.00011229,0.0000694
 3,0.00011307,-0.00007276,0.00005284,-0.00001060,-0.00004587,0.00001998
 ,-0.00019027,0.00024639,-0.00045583,0.00132585,-0.00196793,0.00118069,
 -0.00038665,0.00073495,-0.00028402,0.00166925,0.00473328,-0.00571542,-
 0.00047986,0.00026241,-0.00035349,-0.00000058,-0.00000148,0.00000208,0
 .00000708,0.00001804,0.00000695,0.01712225,-0.01344739,-0.01264513,0.0
 0002600,0.00000261,0.00000101,-0.00000039,-0.00000083,0.00000062,-0.00
 000060,-0.00000288,-0.00000262,-0.00000042,0.00000223,0.00001014,0.000
 20523,-0.00012594,0.00000822,0.00002068,0.00001720,-0.00009189,-0.0000
 0957,0.00001322,-0.00000232,-0.00001341,0.00000118,0.00000331,-0.00000
 044,-0.00000028,-0.00000010,0.00030490,-0.00085322,-0.00020883,0.00020
 829,0.00023420,0.00021867,-0.00019562,0.00014247,0.00030147,-0.0000034
 3,0.00003228,-0.00010482,0.00000104,-0.00000077,0.00000044,0.00000148,
 -0.00000131,0.00000031,-0.00000136,-0.00000020,0.00000077,0.00000042,0
 .00000027,-0.00000024,0.00000037,0.00000012,-0.00000036,0.00000014,-0.
 00000012,-0.00000008,0.00000463,-0.00002740,0.00001802,-0.00000274,0.0
 0000574,-0.00000254,0.00000027,0.00000050,-0.00000331,0.00000168,-0.00
 000262,-0.00001403,0.00000470,0.00001256,0.00000434,-0.00048903,-0.000
 57630,0.00047298,0.10973652,-0.06673614,-0.13500701,0.00562907,-0.0024
 6687,-0.00499991,-0.12206585,0.07141312,0.14642686,0.00000156,0.000000
 41,-0.00000014,-0.00000049,-0.00000034,-0.00000011,-0.00000225,-0.0000
 0002,-0.00000174,-0.00000200,-0.00000071,0.00000154,0.00000127,0.00000
 074,-0.00000071,0.00000532,0.00000049,0.00000307,-0.00000500,0.0000001
 0,0.00000006,-0.00000586,0.00000414,-0.00000609,0.00000394,0.00000156,
 0.00000030,-0.00000909,-0.00000102,0.00000745,0.00001289,0.00001797,-0
 .00001349,-0.00000436,-0.00002227,0.00001039,-0.00003552,-0.00003041,0
 .00001521,0.00002973,0.00003000,0.00000264,0.00000056,-0.00000052,0.00
 000023,0.00000293,0.00000170,-0.00000046,-0.00002686,-0.00003098,-0.00
 000490,0.00000059,-0.00000010,-0.00000030,-0.00000004,0.00000021,0.000
 00020,0.00000026,0.00000009,0.00000041,-0.00000037,0.00000018,-0.00000
 029,0.00000260,-0.00000033,0.00000020,-0.00000055,-0.00000082,0.000000
 33,0.00000040,-0.00000013,-0.00000160,-0.00000017,0.00000038,-0.000000
 06,-0.00000013,0.00000150,-0.00000731,0.00000811,0.00000129,0.00000232
 ,-0.00000049,0.00000002,-0.00000131,-0.00000475,-0.00000319,0.00000026
 ,0.00000283,0.00000244,0.00000007,0.00000080,0.00000003,-0.00000035,-0
 .00000445,0.00004262,-0.00004660,-0.00000877,-0.00002889,0.00002670,0.
 00002061,-0.00002124,-0.00000374,0.00000021,-0.00000677,0.00000340,-0.
 00004098,0.00001899,-0.00007335,0.00024691,-0.00040430,0.00017264,-0.0
 0022153,0.00010716,0.00012080,0.00171914,-0.00043938,-0.00029111,0.000
 04735,0.00027433,-0.00044143,0.00000143,-0.00000025,-0.00000045,0.0000
 0218,0.00000743,0.00000074,0.00541463,-0.00020212,0.00505604,0.0000046
 9,-0.00000725,0.00000402,0.00003613,0.00000415,-0.00000218,0.00000585,
 0.00001409,-0.00000659,-0.00000011,0.00000216,0.00000311,0.00003098,-0
 .00001908,0.00000109,0.00000355,0.00000465,-0.00001581,0.,0.00000295,-
 0.00000288,-0.00000259,-0.00000006,0.00000102,0.00000010,-0.00000004,-
 0.00000002,-0.00035449,-0.00069916,-0.00069656,0.00071153,0.00036745,0
 .00061974,-0.00004252,0.00019245,0.00000142,0.00005029,0.00005033,0.00
 004064,0.00000031,-0.00000015,0.00000003,0.00000036,-0.00000036,0.0000
 0010,-0.00000054,-0.00000027,0.00000015,0.00000021,0.00000008,-0.00000
 010,0.00000010,0.00000008,-0.00000012,0.00000013,-0.00000005,-0.000000
 04,-0.00000003,0.00000876,0.00000030,-0.00000487,0.00000127,-0.0000052
 7,-0.00000420,0.00000038,0.00000170,-0.00000074,0.00000250,0.00000589,
 0.00000445,0.00001593,0.00000259,0.00074336,-0.00089792,0.00124762,-0.
 23945841,0.02497988,-0.12449642,-0.00707098,0.00218333,-0.00324386,-0.
 01604324,0.00073483,-0.01248395,0.25423806,0.00000053,-0.00000054,-0.0
 0000029,0.00000026,0.00000117,-0.00000011,0.00000053,-0.00000035,-0.00
 000062,-0.00000052,0.00000109,0.00000079,0.00000041,-0.00000029,-0.000
 00027,0.00000063,-0.00000229,-0.00000756,-0.00000190,-0.00000047,-0.00
 000011,-0.00000353,0.00001233,0.00001134,0.00000296,-0.00001704,-0.000
 00453,-0.00000624,-0.00000337,0.00000334,-0.00001562,0.00001525,-0.000
 03604,0.00003296,0.00005011,0.00002419,0.00000407,-0.00005674,0.000022
 40,-0.00000702,0.00000402,-0.00000656,-0.00000062,-0.00000025,0.000000
 70,0.,-0.00000037,-0.00000070,-0.00001000,0.00005534,-0.00000499,-0.00
 000019,0.00000017,0.00000040,0.00000008,0.00000005,-0.00000011,0.,-0.0
 0000002,0.00000005,0.00000017,0.00000006,-0.00000022,0.00000057,0.0000
 0370,0.00000263,0.00000256,0.00000264,-0.00000498,-0.00000088,-0.00000
 355,-0.00000099,0.00000020,-0.00000147,0.00000009,0.00001039,-0.000003
 68,0.00000175,-0.00000562,-0.00000917,-0.00000732,0.00000443,-0.000000
 02,0.00000251,0.00000664,0.00000498,0.00000027,-0.00000362,-0.00000447
 ,-0.00000077,-0.00000101,-0.00000044,0.00000045,0.00003133,0.00002597,
 0.00001763,-0.00008515,-0.00000130,0.00000421,-0.00002586,0.00000381,0
 .00000433,0.00000503,0.00001305,-0.00000287,0.00003465,0.00000176,0.00
 002745,0.00009827,-0.00012517,-0.00014639,-0.00024134,-0.00009774,0.00
 028037,0.00010527,0.00035781,-0.00159315,-0.00013121,0.00043575,-0.000
 31265,-0.00000023,-0.00000042,-0.00000161,-0.00000571,-0.00000088,-0.0
 0000233,0.01712023,-0.00414691,0.01112173,0.00000412,0.00000837,-0.000
 00425,-0.00000375,-0.00000191,0.00000133,-0.00002051,-0.00000545,0.000
 00090,0.00000782,-0.00000519,-0.00000379,-0.00002667,0.00000905,-0.000
 00522,-0.00000418,0.00000039,0.00001220,0.00000260,-0.00000104,0.00000
 148,0.00000224,-0.00000076,-0.00000084,0.00000004,0.,-0.00000004,0.002
 80310,0.00018471,0.00111207,-0.00041094,0.00096069,-0.00094097,-0.0003
 8936,-0.00016490,0.00000869,-0.00007929,0.00021661,0.00001270,-0.00000
 017,0.00000004,-0.00000003,-0.00000032,0.00000024,-0.00000007,-0.00000
 006,-0.00000021,-0.00000010,0.,-0.00000002,0.00000002,0.00000007,0.000
 00004,-0.00000001,0.00000006,0.,0.,-0.00000841,-0.00002588,0.00000505,
 -0.00000295,0.00000295,-0.00001846,-0.00000562,0.00000819,-0.00000191,
 -0.00000566,0.00000360,-0.00001080,-0.00000756,-0.00000434,0.00000186,
 -0.00137019,-0.00164754,0.00305480,0.02212579,-0.04999762,0.01398834,-
 0.02409614,0.00517237,-0.01517570,0.01083096,-0.00208589,0.00837941,-0
 .02626090,0.05086141,0.00000025,-0.00000109,-0.00000005,0.00000065,0.0
 0000201,-0.00000037,-0.00000078,0.00000230,-0.00000075,0.00000023,0.00
 000084,-0.00000030,-0.00000024,-0.00000114,0.00000064,0.00000375,-0.00
 000322,0.00000006,-0.00000402,0.00000212,0.00000004,-0.00000694,0.0000
 0796,-0.00000019,0.00000383,-0.00001159,-0.00000021,-0.00000325,0.0000
 0099,0.00000163,0.00002617,-0.00001182,-0.00000458,-0.00002889,-0.0000
 2225,0.00001016,-0.00004675,0.00001335,0.00001749,0.00003383,0.0000201
 0,-0.00000131,-0.00000002,0.00000052,-0.00000039,0.00000223,0.00000144
 ,0.,-0.00001441,-0.00007221,0.00003930,0.00000025,-0.00000049,0.000000
 46,-0.00000014,-0.00000026,-0.00000026,0.00000007,0.00000014,0.0000000
 3,0.00000024,0.00000024,0.00000012,0.00000192,-0.00000031,-0.00000044,
 -0.00000213,-0.00000199,0.00000234,0.00000035,0.00000101,-0.00000096,-
 0.00000026,0.00000030,0.00000031,0.00000479,-0.00000537,-0.00000240,-0
 .00001222,-0.00000189,-0.00000188,0.00000306,-0.00000028,0.00000222,0.
 00001301,0.00000673,0.00000119,-0.00000625,-0.00000643,-0.00000029,-0.
 00000128,-0.00000018,-0.00000018,0.00004202,0.00008561,-0.00004543,-0.
 00008295,-0.00003081,0.00005120,-0.00000652,-0.00002903,0.00004059,0.0
 0000155,0.00001045,-0.00000140,-0.00002033,-0.00001696,-0.00000474,0.0
 0007060,0.00058888,-0.00036177,0.00047305,-0.00038816,-0.00009300,-0.0
 0162618,0.00015062,0.00248219,0.00078092,-0.00060185,-0.00154893,-0.00
 000244,-0.00000078,-0.00000036,0.00000635,-0.00001176,-0.00000347,-0.0
 2280562,0.00424557,-0.01689901,-0.00001218,-0.00001086,0.00000163,0.00
 000819,-0.00000050,-0.00000193,0.00000593,0.00000888,-0.00000340,-0.00
 000688,-0.00000026,-0.00000025,0.00000242,0.00000094,0.00000170,0.0000
 0065,-0.00000271,0.00000161,-0.00000254,-0.00000304,0.00000415,0.00000
 111,0.00000026,0.00000305,0.00000017,-0.00000001,0.00000003,-0.0020498
 1,-0.00151256,-0.00070223,0.00110424,-0.00081963,0.00095596,0.00018809
 ,0.00016820,0.00017821,0.00013931,-0.00022021,-0.00005358,-0.00000037,
 0.00000036,-0.00000013,-0.00000047,0.00000041,-0.00000007,0.00000035,-
 0.00000011,-0.00000023,-0.00000008,-0.00000009,0.00000002,-0.00000001,
 0.,0.00000008,0.00000006,0.00000005,-0.00000001,0.00001786,0.00004897,
 -0.00000925,-0.00000085,0.00000514,0.00000882,0.00000146,-0.00000535,-
 0.00000208,0.00000322,0.00000284,0.00001860,0.00000883,0.00001706,-0.0
 0000025,0.00185071,0.00313961,-0.00324067,-0.12253448,0.01479654,-0.12
 664283,-0.00601863,0.00179976,-0.00488717,0.01600127,-0.00152689,0.011
 35628,0.13449493,-0.01980811,0.13933667\\-0.00000237,-0.00001481,-0.00
 000157,0.00000061,0.00000449,0.00000504,-0.00000205,0.00000166,0.00000
 703,-0.00000369,0.00001047,0.00000095,0.00000515,-0.00000674,-0.000002
 20,0.00001393,0.00000252,0.00000026,-0.00000314,0.00000245,-0.00000238
 ,-0.00000229,-0.00001231,-0.00000466,0.00000103,0.00000523,0.00000054,
 0.00000252,0.00000568,-0.00000085,-0.00000906,0.00000908,0.00000700,0.
 00000250,-0.00000310,-0.00000042,-0.00000601,-0.00001999,-0.00000878,0
 .00000644,0.00001328,0.00000455,0.00000205,0.00000156,-0.00000325,0.00
 000025,-0.00000164,0.00000078,0.00000062,0.00000511,-0.00000037,-0.000
 00077,-0.00000194,-0.00000312,0.00000084,0.00000051,0.00000103,0.00000
 120,-0.00000021,-0.00000055,-0.00000049,-0.00000041,-0.00000025,0.0000
 0214,-0.00000108,0.00000011,-0.00000074,0.00000042,0.00000030,-0.00000
 008,0.00000035,0.00000028,-0.00000027,-0.00000028,-0.00000070,0.000002
 08,0.00000276,-0.00000446,-0.00000209,-0.00000614,0.00000337,0.0000003
 8,-0.00000038,-0.00000324,0.00000041,0.00000455,0.00000515,-0.00000121
 ,-0.00001078,-0.00000552,0.00000264,-0.00000223,-0.00000354,0.00000254
 ,-0.00000582,0.00000355,-0.00000228,0.00000286,0.00000026,0.00000283,0
 .00000443,-0.00000177,-0.00000294,-0.00000083,0.00000299,-0.00000818,-
 0.00000202,-0.00000138,0.00000962,-0.00000114,0.00000446,-0.00000147,0
 .00000047,-0.00000214,-0.00000892,0.00000153,0.00000613,0.00000145,0.0
 0000054,-0.00000230,-0.00000231,-0.00000096,-0.00000130,0.00000114,0.0
 0000006,-0.00000020,0.00000399,0.00000108,-0.00000800,0.00000037,0.000
 00444,0.00000142,-0.00000027,-0.00000119,0.00000001,-0.00000096,-0.000
 00036,0.00000142,-0.00000040,-0.00000093,0.00000009,0.00000088,0.00000
 081,0.00000006,-0.00000098,-0.00000033,0.00000038,-0.00000157,-0.00000
 041,0.00000042,-0.00000049,-0.00000030,-0.00000047,-0.00000071,-0.0000
 0020,-0.00000076,0.00000862,-0.00000608,0.00001063,-0.00000633,0.00000
 037,-0.00000666,-0.00000320,-0.00000130,-0.00000337,0.00000113,0.00000
 246,0.00000145,-0.00000220,-0.00000131,0.00000135,0.00000032,0.0000010
 1,0.00000174,0.00000110,0.00000715,0.00000437,-0.00000158,0.00000086,-
 0.00000338,0.00000487,0.00000188,-0.00000557,-0.00000591,-0.00000119,-
 0.00000226,0.00000176,0.00000476,0.00000328,0.00000078,0.00000025,-0.0
 0000102,0.00000009,-0.00000045,-0.00000035,-0.00000010,0.,0.00000042,0
 .00000078,0.00000014,0.,-0.00000056,0.00000068,0.00000138,-0.00000187,
 0.,0.00000264,0.,-0.00000033,0.00000088,0.00000015,0.00000075,0.000000
 71,0.00000025,0.00000053,0.00000038\\\@


 Mondays are the potholes in the road of life.
                                -- Tom Wilson
 Job cpu time:       2 days  7 hours 34 minutes 13.3 seconds.
 Elapsed time:       0 days  2 hours 19 minutes  4.4 seconds.
 File lengths (MBytes):  RWF=   4714 Int=      0 D2E=      0 Chk=     80 Scr=      1
 Normal termination of Gaussian 16 at Tue Feb 15 08:32:34 2022.
