 Entering Gaussian System, Link 0=g16
 Input=input.com
 Output=input.log
 Initial command:
 /share/apps/g16.b01_avx2/g16/l1.exe "/scratch/Gau-30240.inp" -scrdir="/scratch/"
 Entering Link 1 = /share/apps/g16.b01_avx2/g16/l1.exe PID=     30242.
  
 Copyright (c) 1988-2017, Gaussian, Inc.  All Rights Reserved.
  
 This is part of the Gaussian(R) 16 program.  It is based on
 the Gaussian(R) 09 system (copyright 2009, Gaussian, Inc.),
 the Gaussian(R) 03 system (copyright 2003, Gaussian, Inc.),
 the Gaussian(R) 98 system (copyright 1998, Gaussian, Inc.),
 the Gaussian(R) 94 system (copyright 1995, Gaussian, Inc.),
 the Gaussian 92(TM) system (copyright 1992, Gaussian, Inc.),
 the Gaussian 90(TM) system (copyright 1990, Gaussian, Inc.),
 the Gaussian 88(TM) system (copyright 1988, Gaussian, Inc.),
 the Gaussian 86(TM) system (copyright 1986, Carnegie Mellon
 University), and the Gaussian 82(TM) system (copyright 1983,
 Carnegie Mellon University). Gaussian is a federally registered
 trademark of Gaussian, Inc.
  
 This software contains proprietary and confidential information,
 including trade secrets, belonging to Gaussian, Inc.
  
 This software is provided under written license and may be
 used, copied, transmitted, or stored only in accord with that
 written license.
  
 The following legend is applicable only to US Government
 contracts under FAR:
  
                    RESTRICTED RIGHTS LEGEND
  
 Use, reproduction and disclosure by the US Government is
 subject to restrictions as set forth in subparagraphs (a)
 and (c) of the Commercial Computer Software - Restricted
 Rights clause in FAR 52.227-19.
  
 Gaussian, Inc.
 340 Quinnipiac St., Bldg. 40, Wallingford CT 06492
  
  
 ---------------------------------------------------------------
 Warning -- This program may not be used in any manner that
 competes with the business of Gaussian, Inc. or will provide
 assistance to any competitor of Gaussian, Inc.  The licensee
 of this program is prohibited from giving any competitor of
 Gaussian, Inc. access to this program.  By using this program,
 the user acknowledges that Gaussian, Inc. is engaged in the
 business of creating and licensing software in the field of
 computational chemistry and represents and warrants to the
 licensee that it is not a competitor of Gaussian, Inc. and that
 it will not use this program in any manner prohibited above.
 ---------------------------------------------------------------
  

 Cite this work as:
 Gaussian 16, Revision B.01,
 M. J. Frisch, G. W. Trucks, H. B. Schlegel, G. E. Scuseria, 
 M. A. Robb, J. R. Cheeseman, G. Scalmani, V. Barone, 
 G. A. Petersson, H. Nakatsuji, X. Li, M. Caricato, A. V. Marenich, 
 J. Bloino, B. G. Janesko, R. Gomperts, B. Mennucci, H. P. Hratchian, 
 J. V. Ortiz, A. F. Izmaylov, J. L. Sonnenberg, D. Williams-Young, 
 F. Ding, F. Lipparini, F. Egidi, J. Goings, B. Peng, A. Petrone, 
 T. Henderson, D. Ranasinghe, V. G. Zakrzewski, J. Gao, N. Rega, 
 G. Zheng, W. Liang, M. Hada, M. Ehara, K. Toyota, R. Fukuda, 
 J. Hasegawa, M. Ishida, T. Nakajima, Y. Honda, O. Kitao, H. Nakai, 
 T. Vreven, K. Throssell, J. A. Montgomery, Jr., J. E. Peralta, 
 F. Ogliaro, M. J. Bearpark, J. J. Heyd, E. N. Brothers, K. N. Kudin, 
 V. N. Staroverov, T. A. Keith, R. Kobayashi, J. Normand, 
 K. Raghavachari, A. P. Rendell, J. C. Burant, S. S. Iyengar, 
 J. Tomasi, M. Cossi, J. M. Millam, M. Klene, C. Adamo, R. Cammi, 
 J. W. Ochterski, R. L. Martin, K. Morokuma, O. Farkas, 
 J. B. Foresman, and D. J. Fox, Gaussian, Inc., Wallingford CT, 2016.
 
 ******************************************
 Gaussian 16:  ES64L-G16RevB.01 20-Dec-2017
                30-Jan-2022 
 ******************************************
 %nproc=24
 Will use up to   24 processors via shared memory.
 %mem=64GB
 ----------------------------------------------------------------------
 #P PBE1PBE/6-31+G(d,p) opt int=(grid=99590) freq EmpiricalDispersion=G
 D3
 ----------------------------------------------------------------------
 1/18=20,19=15,26=5,38=1/1,3;
 2/9=110,12=2,17=6,18=5,40=1/2;
 3/5=1,6=6,7=111,11=2,25=1,30=1,71=1,74=-13,75=99590,124=31/1,2,3;
 4//1;
 5/5=2,38=5/2;
 6/7=2,8=2,9=2,10=2,28=1/1;
 7//1,2,3,16;
 1/18=20,19=15,26=5/3(2);
 2/9=110/2;
 99//99;
 2/9=110/2;
 3/5=1,6=6,7=111,11=2,25=1,30=1,71=1,74=-13,75=99590,124=31/1,2,3;
 4/5=5,16=3,69=1/1;
 5/5=2,38=5/2;
 7//1,2,3,16;
 1/18=20,19=15,26=5/3(-5);
 2/9=110/2;
 6/7=2,8=2,9=2,10=2,19=2,28=1/1;
 99/9=1/99;
 Leave Link    1 at Sun Jan 30 20:25:45 2022, MaxMem=  8589934592 cpu:               0.7 elap:               0.0
 (Enter /share/apps/g16.b01_avx2/g16/l101.exe)
 -------
 solv sp
 -------
 Symbolic Z-matrix:
 Charge =  0 Multiplicity = 1
 C                     14.98302  -2.1592    0.54353 
 C                     13.80549  -1.26562   0.8697 
 N                     14.08708  -0.06769   1.46635 
 C                     13.02406   0.75345   2.05274 
 C                     11.96459   1.16938   1.02083 
 N                     12.39471   1.46785  -0.23058 
 C                     11.46072   1.88766  -1.27368 
 C                     10.42342   0.79817  -1.61548 
 N                     10.85637  -0.48932  -1.59783 
 C                     9.93041  -1.59351  -1.84655 
 C                     8.87935  -1.73132  -0.72933 
 N                     9.32485  -1.61648   0.54618 
 C                     8.39076  -1.64542   1.66884 
 C                     7.34755  -0.51226   1.57424 
 N                     7.80778   0.71779   1.24466 
 C                     6.89171   1.8474    1.10877 
 C                     5.84854   1.61477  -0.00172 
 N                     6.29816   1.11413  -1.17522 
 C                     5.37171   0.83472  -2.2688 
 C                     4.31199  -0.21245  -1.87177 
 N                     4.74898  -1.30573  -1.20656 
 C                     3.81138  -2.33465  -0.76686 
 C                     2.76977  -1.78137   0.22569 
 N                     3.229    -0.96981   1.20422 
 C                     2.31038  -0.36565   2.1629 
 C                     1.27694   0.54677   1.47345 
 N                     1.7404    1.39806   0.53196 
 C                     0.82711   2.27653  -0.19262 
 C                    -0.22175   1.48232  -0.99487 
 N                     0.22281   0.41729  -1.69863 
 C                    -0.70857  -0.4166   -2.44979 
 C                    -1.76822  -1.05947  -1.5341 
 N                    -1.33097  -1.61821  -0.38371 
 C                    -2.27703  -2.2095    0.55677 
 C                    -3.29555  -1.17504   1.07515 
 N                    -2.80766   0.02825   1.43678 
 C                    -3.69219   1.08716   1.90949 
 C                    -4.74181   1.48701   0.85447 
 N                    -4.31344   1.67668  -0.40858 
 C                    -5.23844   2.06784  -1.47095 
 C                    -6.24278   0.95409  -1.80883 
 N                    -5.80149  -0.31873  -1.73928 
 C                    -6.65252  -1.44721  -2.0904 
 C                    -7.68527  -1.80117  -0.9995 
 N                    -7.25215  -1.89626   0.26782 
 C                    -8.13726  -2.29388   1.36602 
 C                    -8.67324  -1.09722   2.17763 
 N                    -7.79553  -0.14807   2.53806 
 O                     12.64053  -1.58615   0.59921 
 C                     13.62413   1.98971   2.73376 
 O                     10.77969   1.25444   1.35282 
 C                     12.22364   2.31439  -2.53235 
 O                     9.27861   1.12345  -1.94147 
 C                     10.69939  -2.90405  -2.0509 
 O                     7.69341  -1.93981  -1.00388 
 C                     9.15172  -1.58706   2.99755 
 O                     6.15556  -0.7439    1.80394 
 C                     7.6755    3.14073   0.85754 
 O                     4.66027   1.89735   0.19345 
 C                     6.14104   0.38691  -3.51651 
 O                     3.12525  -0.04457  -2.1797 
 C                     4.56989  -3.51942  -0.15793 
 O                     1.57673  -2.09506   0.1182 
 C                     3.09055   0.40543   3.23387 
 O                     0.08376   0.49282   1.80156 
 C                     1.61081   3.22294  -1.10897 
 O                    -1.40864   1.83393  -0.99013 
 C                     0.05492  -1.48707  -3.23848 
 O                    -2.96091  -1.06782  -1.86908 
 C                    -1.52857  -2.86611   1.72271 
 O                    -4.49917  -1.46706   1.16308 
 C                    -2.87609   2.30962   2.34619 
 O                    -5.92642   1.6364    1.19738 
 C                    -4.45711   2.46037  -2.73197 
 O                    -7.39724   1.2426   -2.18077 
 C                    -5.80306  -2.68289  -2.4175 
 O                    -8.86107  -2.03835  -1.34168 
 O                    -9.86398  -1.08545   2.55667 
 H                     14.90556  -2.4887   -0.49645 
 H                     15.03405   0.09536   1.78616 
 H                     12.46689   0.16254   2.78868 
 H                     13.37901   1.37338  -0.44707 
 H                     10.86522   2.72582  -0.8991 
 H                     11.72262  -0.70749  -1.11427 
 H                     9.34937  -1.35592  -2.7412 
 H                     10.31015  -1.45024   0.72504 
 H                     7.79631  -2.56311   1.6176 
 H                     8.8072    0.87926   1.14167 
 H                     6.29478   1.94301   2.02186 
 H                     7.29215   0.9511   -1.32127 
 H                     4.78932   1.73529  -2.49019 
 H                     5.74125  -1.42695  -1.01162 
 H                     3.2151   -2.67016  -1.62191 
 H                     4.22593  -0.7772    1.28902 
 H                     1.70529  -1.1498    2.63003 
 H                     2.737     1.44286   0.32208 
 H                     0.2349    2.855     0.52434 
 H                     1.21681   0.19191  -1.72372 
 H                    -1.29125   0.21088  -3.13273 
 H                    -0.33624  -1.62896  -0.15808 
 H                    -2.88891  -2.95494   0.03734 
 H                    -1.80369   0.20833   1.40396 
 H                    -4.28581   0.71516   2.75147 
 H                    -3.31889   1.60062  -0.62547 
 H                    -5.83056   2.93169  -1.14955 
 H                    -4.81559  -0.49989  -1.54842 
 H                    -7.25409  -1.17705  -2.96318 
 H                    -6.26342  -1.73543   0.47416 
 H                    -9.00886  -2.79302   0.93868 
 C                    -7.42171  -3.27571   2.30577 
 H                    -6.91742  -0.05351   2.03639 
 H                     9.99509  -3.72641  -2.20618 
 H                     11.34155  -2.83207  -2.93501 
 H                     11.32282  -3.13889  -1.18146 
 H                     8.4434   -1.59887   3.83074 
 H                     9.81144  -2.45593   3.09807 
 H                     9.75301  -0.67373   3.06511 
 H                     12.82478   2.59792   3.165 
 H                     14.29631   1.69365   3.54704 
 H                     14.1831   2.60832   2.02284 
 H                     6.98133   3.9809    0.76525 
 H                     8.35497   3.34399   1.69211 
 H                     8.26236   3.07105  -0.0648 
 H                     11.51442   2.61491  -3.3079 
 H                     12.87522   3.16839  -2.31791 
 H                     12.83213   1.49279  -2.9281 
 H                     5.43813   0.18059  -4.32876 
 H                     6.82915   1.17352  -3.84298 
 H                     6.72006  -0.52024  -3.31402 
 H                     3.85932  -4.28261   0.17261 
 H                     5.23944  -3.96569  -0.90066 
 H                     5.16803  -3.19891   0.70149 
 H                    -3.54969   3.0955    2.70005 
 H                    -2.19336   2.03975   3.15853 
 H                    -2.28627   2.69975   1.51098 
 H                     0.91545   3.87188  -1.64934 
 H                     2.28689   3.8509   -0.5194 
 H                     2.20545   2.65904  -1.83525 
 H                    -2.24615  -3.30184   2.42431 
 H                    -0.87346  -3.66216   1.35385 
 H                    -0.91515  -2.1313    2.25411 
 H                    -5.15805   2.73615  -3.52458 
 H                    -3.82534   3.32715  -2.51722 
 H                    -3.82456   1.6366   -3.08063 
 H                    -0.65061  -2.10874  -3.79771 
 H                     0.74404  -1.0165   -3.94739 
 H                     0.6343   -2.12701  -2.56508 
 H                    -6.45635  -3.52315  -2.67101 
 H                    -5.14581  -2.47396  -3.26675 
 H                    -5.17684  -2.96568  -1.56581 
 H                     2.39361   0.85497   3.94727 
 H                     3.75908  -0.27018   3.77755 
 H                     3.69264   1.19959   2.78057 
 H                    -8.08372  -3.53371   3.13746 
 H                    -7.18312  -4.19691   1.76546 
 H                    -6.49799  -2.84321   2.70508 
 H                     14.9242  -3.05293   1.17408 
 H                     15.95202  -1.677     0.70168 
 O                    -11.56975  -2.82802  -1.12318 
 H                    -11.84137  -2.57     -0.19862 
 H                    -10.61195  -2.65267  -1.15283 
 C                    -8.15315   0.949     3.43475 
 H                    -8.66639   1.76878   2.92777 
 H                    -8.81125   0.57088   4.22066 
 H                    -7.23625   1.34108   3.88161 
 O                    -11.11301   1.6863   -0.80301 
 H                    -12.08039   1.63172  -0.97644 
 H                    -10.72043   1.01091  -1.40625 
 O                    -11.30033   1.36841   1.94614 
 H                    -10.79018   0.60161   2.27184 
 H                    -11.10234   1.44174   0.98335 
 O                    -7.84264   3.833     1.1773 
 H                    -7.23111   3.08127   1.27533 
 H                    -8.3556    3.63604   0.35417 
 O                    -10.00318   3.75298   3.16161 
 H                    -10.55126   3.04697   2.77423 
 H                    -9.28487   3.90237   2.51955 
 O                    -12.63444  -0.99133  -2.80906 
 H                    -12.32242  -1.74599  -2.23984 
 H                    -11.81354  -0.57691  -3.12855 
 O                    -8.99791   3.40829  -1.25382 
 H                    -8.42721   2.71556  -1.64103 
 H                    -9.87806   2.98593  -1.13531 
 O                    -13.688   -0.0499    1.46451 
 H                    -13.83123   0.2118    0.53235 
 H                    -12.99122   0.56722   1.7788 
 O                    -9.94171   0.06163  -2.69845 
 H                    -9.11653   0.57061  -2.80757 
 H                    -9.62367  -0.77694  -2.29545 
 O                    -12.14814  -2.26554   1.43974 
 H                    -12.82641  -1.53856   1.49779 
 H                    -11.34999  -1.9068    1.88006 
 O                    -13.68145   0.82027  -1.24475 
 H                    -13.36362   0.0907   -1.86633 
 H                    -14.4505   1.22924  -1.66082 
 
 Add virtual bond connecting atoms H194       and O178       Dist= 3.04D+00.
 Add virtual bond connecting atoms O190       and H160       Dist= 3.20D+00.
 Add virtual bond connecting atoms H191       and O184       Dist= 3.25D+00.
 Add virtual bond connecting atoms H179       and O159       Dist= 3.26D+00.
 Add virtual bond connecting atoms O193       and H185       Dist= 3.56D+00.
 Add virtual bond connecting atoms O181       and H174       Dist= 3.30D+00.
 Add virtual bond connecting atoms H189       and O77        Dist= 3.32D+00.
 Add virtual bond connecting atoms O187       and H168       Dist= 3.37D+00.
 Add virtual bond connecting atoms H170       and O78        Dist= 3.68D+00.
 Add virtual bond connecting atoms H171       and O166       Dist= 3.41D+00.
 Add virtual bond connecting atoms H161       and O77        Dist= 3.52D+00.
 Add virtual bond connecting atoms H186       and O169       Dist= 3.55D+00.
 Add virtual bond connecting atoms H192       and O78        Dist= 3.45D+00.
 Add virtual bond connecting atoms O193       and H167       Dist= 3.43D+00.
 Add virtual bond connecting atoms H173       and O73        Dist= 3.68D+00.
 Add virtual bond connecting atoms H182       and O75        Dist= 3.55D+00.
 Add virtual bond connecting atoms H183       and O166       Dist= 3.45D+00.
 Add virtual bond connecting atoms H176       and O169       Dist= 3.81D+00.
 Add virtual bond connecting atoms H177       and O172       Dist= 3.73D+00.
 ITRead=  0  0  0  0  0  0  0  0  0  0  0  0  0  0  0  0  0  0  0  0
 ITRead=  0  0  0  0  0  0  0  0  0  0  0  0  0  0  0  0  0  0  0  0
 ITRead=  0  0  0  0  0  0  0  0  0  0  0  0  0  0  0  0  0  0  0  0
 ITRead=  0  0  0  0  0  0  0  0  0  0  0  0  0  0  0  0  0  0  0  0
 ITRead=  0  0  0  0  0  0  0  0  0  0  0  0  0  0  0  0  0  0  0  0
 ITRead=  0  0  0  0  0  0  0  0  0  0  0  0  0  0  0  0  0  0  0  0
 ITRead=  0  0  0  0  0  0  0  0  0  0  0  0  0  0  0  0  0  0  0  0
 ITRead=  0  0  0  0  0  0  0  0  0  0  0  0  0  0  0  0  0  0  0  0
 ITRead=  0  0  0  0  0  0  0  0  0  0  0  0  0  0  0  0  0  0  0  0
 ITRead=  0  0  0  0  0  0  0  0  0  0  0  0  0  0  0
 MicOpt= -1 -1 -1 -1 -1 -1 -1 -1 -1 -1 -1 -1 -1 -1 -1 -1 -1 -1 -1 -1
 MicOpt= -1 -1 -1 -1 -1 -1 -1 -1 -1 -1 -1 -1 -1 -1 -1 -1 -1 -1 -1 -1
 MicOpt= -1 -1 -1 -1 -1 -1 -1 -1 -1 -1 -1 -1 -1 -1 -1 -1 -1 -1 -1 -1
 MicOpt= -1 -1 -1 -1 -1 -1 -1 -1 -1 -1 -1 -1 -1 -1 -1 -1 -1 -1 -1 -1
 MicOpt= -1 -1 -1 -1 -1 -1 -1 -1 -1 -1 -1 -1 -1 -1 -1 -1 -1 -1 -1 -1
 MicOpt= -1 -1 -1 -1 -1 -1 -1 -1 -1 -1 -1 -1 -1 -1 -1 -1 -1 -1 -1 -1
 MicOpt= -1 -1 -1 -1 -1 -1 -1 -1 -1 -1 -1 -1 -1 -1 -1 -1 -1 -1 -1 -1
 MicOpt= -1 -1 -1 -1 -1 -1 -1 -1 -1 -1 -1 -1 -1 -1 -1 -1 -1 -1 -1 -1
 MicOpt= -1 -1 -1 -1 -1 -1 -1 -1 -1 -1 -1 -1 -1 -1 -1 -1 -1 -1 -1 -1
 MicOpt= -1 -1 -1 -1 -1 -1 -1 -1 -1 -1 -1 -1 -1 -1 -1
 NAtoms=    195 NQM=      195 NQMF=       0 NMMI=      0 NMMIF=      0
                NMic=       0 NMicF=      0.
                    Isotopes and Nuclear Properties:
 (Nuclear quadrupole moments (NQMom) in fm**2, nuclear magnetic moments (NMagM)
  in nuclear magnetons)

  Atom         1           2           3           4           5           6           7           8           9          10
 IAtWgt=          12          12          14          12          12          14          12          12          14          12
 AtmWgt=  12.0000000  12.0000000  14.0030740  12.0000000  12.0000000  14.0030740  12.0000000  12.0000000  14.0030740  12.0000000
 NucSpn=           0           0           2           0           0           2           0           0           2           0
 AtZEff=  -0.0000000  -0.0000000  -0.0000000  -0.0000000  -0.0000000  -0.0000000  -0.0000000  -0.0000000  -0.0000000  -0.0000000
 NQMom=    0.0000000   0.0000000   2.0440000   0.0000000   0.0000000   2.0440000   0.0000000   0.0000000   2.0440000   0.0000000
 NMagM=    0.0000000   0.0000000   0.4037610   0.0000000   0.0000000   0.4037610   0.0000000   0.0000000   0.4037610   0.0000000
 AtZNuc=   6.0000000   6.0000000   7.0000000   6.0000000   6.0000000   7.0000000   6.0000000   6.0000000   7.0000000   6.0000000

  Atom        11          12          13          14          15          16          17          18          19          20
 IAtWgt=          12          14          12          12          14          12          12          14          12          12
 AtmWgt=  12.0000000  14.0030740  12.0000000  12.0000000  14.0030740  12.0000000  12.0000000  14.0030740  12.0000000  12.0000000
 NucSpn=           0           2           0           0           2           0           0           2           0           0
 AtZEff=  -0.0000000  -0.0000000  -0.0000000  -0.0000000  -0.0000000  -0.0000000  -0.0000000  -0.0000000  -0.0000000  -0.0000000
 NQMom=    0.0000000   2.0440000   0.0000000   0.0000000   2.0440000   0.0000000   0.0000000   2.0440000   0.0000000   0.0000000
 NMagM=    0.0000000   0.4037610   0.0000000   0.0000000   0.4037610   0.0000000   0.0000000   0.4037610   0.0000000   0.0000000
 AtZNuc=   6.0000000   7.0000000   6.0000000   6.0000000   7.0000000   6.0000000   6.0000000   7.0000000   6.0000000   6.0000000

  Atom        21          22          23          24          25          26          27          28          29          30
 IAtWgt=          14          12          12          14          12          12          14          12          12          14
 AtmWgt=  14.0030740  12.0000000  12.0000000  14.0030740  12.0000000  12.0000000  14.0030740  12.0000000  12.0000000  14.0030740
 NucSpn=           2           0           0           2           0           0           2           0           0           2
 AtZEff=  -0.0000000  -0.0000000  -0.0000000  -0.0000000  -0.0000000  -0.0000000  -0.0000000  -0.0000000  -0.0000000  -0.0000000
 NQMom=    2.0440000   0.0000000   0.0000000   2.0440000   0.0000000   0.0000000   2.0440000   0.0000000   0.0000000   2.0440000
 NMagM=    0.4037610   0.0000000   0.0000000   0.4037610   0.0000000   0.0000000   0.4037610   0.0000000   0.0000000   0.4037610
 AtZNuc=   7.0000000   6.0000000   6.0000000   7.0000000   6.0000000   6.0000000   7.0000000   6.0000000   6.0000000   7.0000000

  Atom        31          32          33          34          35          36          37          38          39          40
 IAtWgt=          12          12          14          12          12          14          12          12          14          12
 AtmWgt=  12.0000000  12.0000000  14.0030740  12.0000000  12.0000000  14.0030740  12.0000000  12.0000000  14.0030740  12.0000000
 NucSpn=           0           0           2           0           0           2           0           0           2           0
 AtZEff=  -0.0000000  -0.0000000  -0.0000000  -0.0000000  -0.0000000  -0.0000000  -0.0000000  -0.0000000  -0.0000000  -0.0000000
 NQMom=    0.0000000   0.0000000   2.0440000   0.0000000   0.0000000   2.0440000   0.0000000   0.0000000   2.0440000   0.0000000
 NMagM=    0.0000000   0.0000000   0.4037610   0.0000000   0.0000000   0.4037610   0.0000000   0.0000000   0.4037610   0.0000000
 AtZNuc=   6.0000000   6.0000000   7.0000000   6.0000000   6.0000000   7.0000000   6.0000000   6.0000000   7.0000000   6.0000000

  Atom        41          42          43          44          45          46          47          48          49          50
 IAtWgt=          12          14          12          12          14          12          12          14          16          12
 AtmWgt=  12.0000000  14.0030740  12.0000000  12.0000000  14.0030740  12.0000000  12.0000000  14.0030740  15.9949146  12.0000000
 NucSpn=           0           2           0           0           2           0           0           2           0           0
 AtZEff=  -0.0000000  -0.0000000  -0.0000000  -0.0000000  -0.0000000  -0.0000000  -0.0000000  -0.0000000  -0.0000000  -0.0000000
 NQMom=    0.0000000   2.0440000   0.0000000   0.0000000   2.0440000   0.0000000   0.0000000   2.0440000   0.0000000   0.0000000
 NMagM=    0.0000000   0.4037610   0.0000000   0.0000000   0.4037610   0.0000000   0.0000000   0.4037610   0.0000000   0.0000000
 AtZNuc=   6.0000000   7.0000000   6.0000000   6.0000000   7.0000000   6.0000000   6.0000000   7.0000000   8.0000000   6.0000000

  Atom        51          52          53          54          55          56          57          58          59          60
 IAtWgt=          16          12          16          12          16          12          16          12          16          12
 AtmWgt=  15.9949146  12.0000000  15.9949146  12.0000000  15.9949146  12.0000000  15.9949146  12.0000000  15.9949146  12.0000000
 NucSpn=           0           0           0           0           0           0           0           0           0           0
 AtZEff=  -0.0000000  -0.0000000  -0.0000000  -0.0000000  -0.0000000  -0.0000000  -0.0000000  -0.0000000  -0.0000000  -0.0000000
 NQMom=    0.0000000   0.0000000   0.0000000   0.0000000   0.0000000   0.0000000   0.0000000   0.0000000   0.0000000   0.0000000
 NMagM=    0.0000000   0.0000000   0.0000000   0.0000000   0.0000000   0.0000000   0.0000000   0.0000000   0.0000000   0.0000000
 AtZNuc=   8.0000000   6.0000000   8.0000000   6.0000000   8.0000000   6.0000000   8.0000000   6.0000000   8.0000000   6.0000000

  Atom        61          62          63          64          65          66          67          68          69          70
 IAtWgt=          16          12          16          12          16          12          16          12          16          12
 AtmWgt=  15.9949146  12.0000000  15.9949146  12.0000000  15.9949146  12.0000000  15.9949146  12.0000000  15.9949146  12.0000000
 NucSpn=           0           0           0           0           0           0           0           0           0           0
 AtZEff=  -0.0000000  -0.0000000  -0.0000000  -0.0000000  -0.0000000  -0.0000000  -0.0000000  -0.0000000  -0.0000000  -0.0000000
 NQMom=    0.0000000   0.0000000   0.0000000   0.0000000   0.0000000   0.0000000   0.0000000   0.0000000   0.0000000   0.0000000
 NMagM=    0.0000000   0.0000000   0.0000000   0.0000000   0.0000000   0.0000000   0.0000000   0.0000000   0.0000000   0.0000000
 AtZNuc=   8.0000000   6.0000000   8.0000000   6.0000000   8.0000000   6.0000000   8.0000000   6.0000000   8.0000000   6.0000000

  Atom        71          72          73          74          75          76          77          78          79          80
 IAtWgt=          16          12          16          12          16          12          16          16           1           1
 AtmWgt=  15.9949146  12.0000000  15.9949146  12.0000000  15.9949146  12.0000000  15.9949146  15.9949146   1.0078250   1.0078250
 NucSpn=           0           0           0           0           0           0           0           0           1           1
 AtZEff=  -0.0000000  -0.0000000  -0.0000000  -0.0000000  -0.0000000  -0.0000000  -0.0000000  -0.0000000  -0.0000000  -0.0000000
 NQMom=    0.0000000   0.0000000   0.0000000   0.0000000   0.0000000   0.0000000   0.0000000   0.0000000   0.0000000   0.0000000
 NMagM=    0.0000000   0.0000000   0.0000000   0.0000000   0.0000000   0.0000000   0.0000000   0.0000000   2.7928460   2.7928460
 AtZNuc=   8.0000000   6.0000000   8.0000000   6.0000000   8.0000000   6.0000000   8.0000000   8.0000000   1.0000000   1.0000000

  Atom        81          82          83          84          85          86          87          88          89          90
 IAtWgt=           1           1           1           1           1           1           1           1           1           1
 AtmWgt=   1.0078250   1.0078250   1.0078250   1.0078250   1.0078250   1.0078250   1.0078250   1.0078250   1.0078250   1.0078250
 NucSpn=           1           1           1           1           1           1           1           1           1           1
 AtZEff=  -0.0000000  -0.0000000  -0.0000000  -0.0000000  -0.0000000  -0.0000000  -0.0000000  -0.0000000  -0.0000000  -0.0000000
 NQMom=    0.0000000   0.0000000   0.0000000   0.0000000   0.0000000   0.0000000   0.0000000   0.0000000   0.0000000   0.0000000
 NMagM=    2.7928460   2.7928460   2.7928460   2.7928460   2.7928460   2.7928460   2.7928460   2.7928460   2.7928460   2.7928460
 AtZNuc=   1.0000000   1.0000000   1.0000000   1.0000000   1.0000000   1.0000000   1.0000000   1.0000000   1.0000000   1.0000000

  Atom        91          92          93          94          95          96          97          98          99         100
 IAtWgt=           1           1           1           1           1           1           1           1           1           1
 AtmWgt=   1.0078250   1.0078250   1.0078250   1.0078250   1.0078250   1.0078250   1.0078250   1.0078250   1.0078250   1.0078250
 NucSpn=           1           1           1           1           1           1           1           1           1           1
 AtZEff=  -0.0000000  -0.0000000  -0.0000000  -0.0000000  -0.0000000  -0.0000000  -0.0000000  -0.0000000  -0.0000000  -0.0000000
 NQMom=    0.0000000   0.0000000   0.0000000   0.0000000   0.0000000   0.0000000   0.0000000   0.0000000   0.0000000   0.0000000
 NMagM=    2.7928460   2.7928460   2.7928460   2.7928460   2.7928460   2.7928460   2.7928460   2.7928460   2.7928460   2.7928460
 AtZNuc=   1.0000000   1.0000000   1.0000000   1.0000000   1.0000000   1.0000000   1.0000000   1.0000000   1.0000000   1.0000000

  Atom       101         102         103         104         105         106         107         108         109         110
 IAtWgt=           1           1           1           1           1           1           1           1           1          12
 AtmWgt=   1.0078250   1.0078250   1.0078250   1.0078250   1.0078250   1.0078250   1.0078250   1.0078250   1.0078250  12.0000000
 NucSpn=           1           1           1           1           1           1           1           1           1           0
 AtZEff=  -0.0000000  -0.0000000  -0.0000000  -0.0000000  -0.0000000  -0.0000000  -0.0000000  -0.0000000  -0.0000000  -0.0000000
 NQMom=    0.0000000   0.0000000   0.0000000   0.0000000   0.0000000   0.0000000   0.0000000   0.0000000   0.0000000   0.0000000
 NMagM=    2.7928460   2.7928460   2.7928460   2.7928460   2.7928460   2.7928460   2.7928460   2.7928460   2.7928460   0.0000000
 AtZNuc=   1.0000000   1.0000000   1.0000000   1.0000000   1.0000000   1.0000000   1.0000000   1.0000000   1.0000000   6.0000000

  Atom       111         112         113         114         115         116         117         118         119         120
 IAtWgt=           1           1           1           1           1           1           1           1           1           1
 AtmWgt=   1.0078250   1.0078250   1.0078250   1.0078250   1.0078250   1.0078250   1.0078250   1.0078250   1.0078250   1.0078250
 NucSpn=           1           1           1           1           1           1           1           1           1           1
 AtZEff=  -0.0000000  -0.0000000  -0.0000000  -0.0000000  -0.0000000  -0.0000000  -0.0000000  -0.0000000  -0.0000000  -0.0000000
 NQMom=    0.0000000   0.0000000   0.0000000   0.0000000   0.0000000   0.0000000   0.0000000   0.0000000   0.0000000   0.0000000
 NMagM=    2.7928460   2.7928460   2.7928460   2.7928460   2.7928460   2.7928460   2.7928460   2.7928460   2.7928460   2.7928460
 AtZNuc=   1.0000000   1.0000000   1.0000000   1.0000000   1.0000000   1.0000000   1.0000000   1.0000000   1.0000000   1.0000000

  Atom       121         122         123         124         125         126         127         128         129         130
 IAtWgt=           1           1           1           1           1           1           1           1           1           1
 AtmWgt=   1.0078250   1.0078250   1.0078250   1.0078250   1.0078250   1.0078250   1.0078250   1.0078250   1.0078250   1.0078250
 NucSpn=           1           1           1           1           1           1           1           1           1           1
 AtZEff=  -0.0000000  -0.0000000  -0.0000000  -0.0000000  -0.0000000  -0.0000000  -0.0000000  -0.0000000  -0.0000000  -0.0000000
 NQMom=    0.0000000   0.0000000   0.0000000   0.0000000   0.0000000   0.0000000   0.0000000   0.0000000   0.0000000   0.0000000
 NMagM=    2.7928460   2.7928460   2.7928460   2.7928460   2.7928460   2.7928460   2.7928460   2.7928460   2.7928460   2.7928460
 AtZNuc=   1.0000000   1.0000000   1.0000000   1.0000000   1.0000000   1.0000000   1.0000000   1.0000000   1.0000000   1.0000000

  Atom       131         132         133         134         135         136         137         138         139         140
 IAtWgt=           1           1           1           1           1           1           1           1           1           1
 AtmWgt=   1.0078250   1.0078250   1.0078250   1.0078250   1.0078250   1.0078250   1.0078250   1.0078250   1.0078250   1.0078250
 NucSpn=           1           1           1           1           1           1           1           1           1           1
 AtZEff=  -0.0000000  -0.0000000  -0.0000000  -0.0000000  -0.0000000  -0.0000000  -0.0000000  -0.0000000  -0.0000000  -0.0000000
 NQMom=    0.0000000   0.0000000   0.0000000   0.0000000   0.0000000   0.0000000   0.0000000   0.0000000   0.0000000   0.0000000
 NMagM=    2.7928460   2.7928460   2.7928460   2.7928460   2.7928460   2.7928460   2.7928460   2.7928460   2.7928460   2.7928460
 AtZNuc=   1.0000000   1.0000000   1.0000000   1.0000000   1.0000000   1.0000000   1.0000000   1.0000000   1.0000000   1.0000000

  Atom       141         142         143         144         145         146         147         148         149         150
 IAtWgt=           1           1           1           1           1           1           1           1           1           1
 AtmWgt=   1.0078250   1.0078250   1.0078250   1.0078250   1.0078250   1.0078250   1.0078250   1.0078250   1.0078250   1.0078250
 NucSpn=           1           1           1           1           1           1           1           1           1           1
 AtZEff=  -0.0000000  -0.0000000  -0.0000000  -0.0000000  -0.0000000  -0.0000000  -0.0000000  -0.0000000  -0.0000000  -0.0000000
 NQMom=    0.0000000   0.0000000   0.0000000   0.0000000   0.0000000   0.0000000   0.0000000   0.0000000   0.0000000   0.0000000
 NMagM=    2.7928460   2.7928460   2.7928460   2.7928460   2.7928460   2.7928460   2.7928460   2.7928460   2.7928460   2.7928460
 AtZNuc=   1.0000000   1.0000000   1.0000000   1.0000000   1.0000000   1.0000000   1.0000000   1.0000000   1.0000000   1.0000000

  Atom       151         152         153         154         155         156         157         158         159         160
 IAtWgt=           1           1           1           1           1           1           1           1          16           1
 AtmWgt=   1.0078250   1.0078250   1.0078250   1.0078250   1.0078250   1.0078250   1.0078250   1.0078250  15.9949146   1.0078250
 NucSpn=           1           1           1           1           1           1           1           1           0           1
 AtZEff=  -0.0000000  -0.0000000  -0.0000000  -0.0000000  -0.0000000  -0.0000000  -0.0000000  -0.0000000  -0.0000000  -0.0000000
 NQMom=    0.0000000   0.0000000   0.0000000   0.0000000   0.0000000   0.0000000   0.0000000   0.0000000   0.0000000   0.0000000
 NMagM=    2.7928460   2.7928460   2.7928460   2.7928460   2.7928460   2.7928460   2.7928460   2.7928460   0.0000000   2.7928460
 AtZNuc=   1.0000000   1.0000000   1.0000000   1.0000000   1.0000000   1.0000000   1.0000000   1.0000000   8.0000000   1.0000000

  Atom       161         162         163         164         165         166         167         168         169         170
 IAtWgt=           1          12           1           1           1          16           1           1          16           1
 AtmWgt=   1.0078250  12.0000000   1.0078250   1.0078250   1.0078250  15.9949146   1.0078250   1.0078250  15.9949146   1.0078250
 NucSpn=           1           0           1           1           1           0           1           1           0           1
 AtZEff=  -0.0000000  -0.0000000  -0.0000000  -0.0000000  -0.0000000  -0.0000000  -0.0000000  -0.0000000  -0.0000000  -0.0000000
 NQMom=    0.0000000   0.0000000   0.0000000   0.0000000   0.0000000   0.0000000   0.0000000   0.0000000   0.0000000   0.0000000
 NMagM=    2.7928460   0.0000000   2.7928460   2.7928460   2.7928460   0.0000000   2.7928460   2.7928460   0.0000000   2.7928460
 AtZNuc=   1.0000000   6.0000000   1.0000000   1.0000000   1.0000000   8.0000000   1.0000000   1.0000000   8.0000000   1.0000000

  Atom       171         172         173         174         175         176         177         178         179         180
 IAtWgt=           1          16           1           1          16           1           1          16           1           1
 AtmWgt=   1.0078250  15.9949146   1.0078250   1.0078250  15.9949146   1.0078250   1.0078250  15.9949146   1.0078250   1.0078250
 NucSpn=           1           0           1           1           0           1           1           0           1           1
 AtZEff=  -0.0000000  -0.0000000  -0.0000000  -0.0000000  -0.0000000  -0.0000000  -0.0000000  -0.0000000  -0.0000000  -0.0000000
 NQMom=    0.0000000   0.0000000   0.0000000   0.0000000   0.0000000   0.0000000   0.0000000   0.0000000   0.0000000   0.0000000
 NMagM=    2.7928460   0.0000000   2.7928460   2.7928460   0.0000000   2.7928460   2.7928460   0.0000000   2.7928460   2.7928460
 AtZNuc=   1.0000000   8.0000000   1.0000000   1.0000000   8.0000000   1.0000000   1.0000000   8.0000000   1.0000000   1.0000000

  Atom       181         182         183         184         185         186         187         188         189         190
 IAtWgt=          16           1           1          16           1           1          16           1           1          16
 AtmWgt=  15.9949146   1.0078250   1.0078250  15.9949146   1.0078250   1.0078250  15.9949146   1.0078250   1.0078250  15.9949146
 NucSpn=           0           1           1           0           1           1           0           1           1           0
 AtZEff=  -0.0000000  -0.0000000  -0.0000000  -0.0000000  -0.0000000  -0.0000000  -0.0000000  -0.0000000  -0.0000000  -0.0000000
 NQMom=    0.0000000   0.0000000   0.0000000   0.0000000   0.0000000   0.0000000   0.0000000   0.0000000   0.0000000   0.0000000
 NMagM=    0.0000000   2.7928460   2.7928460   0.0000000   2.7928460   2.7928460   0.0000000   2.7928460   2.7928460   0.0000000
 AtZNuc=   8.0000000   1.0000000   1.0000000   8.0000000   1.0000000   1.0000000   8.0000000   1.0000000   1.0000000   8.0000000

  Atom       191         192         193         194         195
 IAtWgt=           1           1          16           1           1
 AtmWgt=   1.0078250   1.0078250  15.9949146   1.0078250   1.0078250
 NucSpn=           1           1           0           1           1
 AtZEff=  -0.0000000  -0.0000000  -0.0000000  -0.0000000  -0.0000000
 NQMom=    0.0000000   0.0000000   0.0000000   0.0000000   0.0000000
 NMagM=    2.7928460   2.7928460   0.0000000   2.7928460   2.7928460
 AtZNuc=   1.0000000   1.0000000   8.0000000   1.0000000   1.0000000
 Leave Link  101 at Sun Jan 30 20:25:46 2022, MaxMem=  8589934592 cpu:               9.0 elap:               0.4
 (Enter /share/apps/g16.b01_avx2/g16/l103.exe)

 GradGradGradGradGradGradGradGradGradGradGradGradGradGradGradGradGradGrad
 Berny optimization.
 Initialization pass.
                           ----------------------------
                           !    Initial Parameters    !
                           ! (Angstroms and Degrees)  !
 --------------------------                            --------------------------
 ! Name  Definition              Value          Derivative Info.                !
 --------------------------------------------------------------------------------
 ! R1    R(1,2)                  1.5138         estimate D2E/DX2                !
 ! R2    R(1,79)                 1.0937         estimate D2E/DX2                !
 ! R3    R(1,157)                1.0954         estimate D2E/DX2                !
 ! R4    R(1,158)                1.0938         estimate D2E/DX2                !
 ! R5    R(2,3)                  1.3676         estimate D2E/DX2                !
 ! R6    R(2,49)                 1.2382         estimate D2E/DX2                !
 ! R7    R(3,4)                  1.4656         estimate D2E/DX2                !
 ! R8    R(3,80)                 1.0127         estimate D2E/DX2                !
 ! R9    R(4,5)                  1.5363         estimate D2E/DX2                !
 ! R10   R(4,50)                 1.5337         estimate D2E/DX2                !
 ! R11   R(4,81)                 1.096          estimate D2E/DX2                !
 ! R12   R(5,6)                  1.3565         estimate D2E/DX2                !
 ! R13   R(5,51)                 1.2335         estimate D2E/DX2                !
 ! R14   R(6,7)                  1.4617         estimate D2E/DX2                !
 ! R15   R(6,82)                 1.0122         estimate D2E/DX2                !
 ! R16   R(7,8)                  1.5427         estimate D2E/DX2                !
 ! R17   R(7,52)                 1.5325         estimate D2E/DX2                !
 ! R18   R(7,83)                 1.0943         estimate D2E/DX2                !
 ! R19   R(8,9)                  1.3585         estimate D2E/DX2                !
 ! R20   R(8,53)                 1.234          estimate D2E/DX2                !
 ! R21   R(9,10)                 1.4624         estimate D2E/DX2                !
 ! R22   R(9,84)                 1.0158         estimate D2E/DX2                !
 ! R23   R(10,11)                1.5401         estimate D2E/DX2                !
 ! R24   R(10,54)                1.5332         estimate D2E/DX2                !
 ! R25   R(10,85)                1.0929         estimate D2E/DX2                !
 ! R26   R(11,12)                1.3559         estimate D2E/DX2                !
 ! R27   R(11,55)                1.235          estimate D2E/DX2                !
 ! R28   R(12,13)                1.4607         estimate D2E/DX2                !
 ! R29   R(12,86)                1.0151         estimate D2E/DX2                !
 ! R30   R(13,14)                1.5431         estimate D2E/DX2                !
 ! R31   R(13,56)                1.5323         estimate D2E/DX2                !
 ! R32   R(13,87)                1.0946         estimate D2E/DX2                !
 ! R33   R(14,15)                1.3541         estimate D2E/DX2                !
 ! R34   R(14,57)                1.2358         estimate D2E/DX2                !
 ! R35   R(15,16)                1.4607         estimate D2E/DX2                !
 ! R36   R(15,88)                1.0176         estimate D2E/DX2                !
 ! R37   R(16,17)                1.5413         estimate D2E/DX2                !
 ! R38   R(16,58)                1.533          estimate D2E/DX2                !
 ! R39   R(16,89)                1.0951         estimate D2E/DX2                !
 ! R40   R(17,18)                1.3527         estimate D2E/DX2                !
 ! R41   R(17,59)                1.2369         estimate D2E/DX2                !
 ! R42   R(18,19)                1.4602         estimate D2E/DX2                !
 ! R43   R(18,90)                1.0178         estimate D2E/DX2                !
 ! R44   R(19,20)                1.5418         estimate D2E/DX2                !
 ! R45   R(19,60)                1.5327         estimate D2E/DX2                !
 ! R46   R(19,91)                1.0951         estimate D2E/DX2                !
 ! R47   R(20,21)                1.3523         estimate D2E/DX2                !
 ! R48   R(20,61)                1.2375         estimate D2E/DX2                !
 ! R49   R(21,22)                1.4598         estimate D2E/DX2                !
 ! R50   R(21,92)                1.0185         estimate D2E/DX2                !
 ! R51   R(22,23)                1.5415         estimate D2E/DX2                !
 ! R52   R(22,62)                1.5329         estimate D2E/DX2                !
 ! R53   R(22,93)                1.0951         estimate D2E/DX2                !
 ! R54   R(23,24)                1.3517         estimate D2E/DX2                !
 ! R55   R(23,63)                1.2383         estimate D2E/DX2                !
 ! R56   R(24,25)                1.4588         estimate D2E/DX2                !
 ! R57   R(24,94)                1.0189         estimate D2E/DX2                !
 ! R58   R(25,26)                1.5414         estimate D2E/DX2                !
 ! R59   R(25,64)                1.533          estimate D2E/DX2                !
 ! R60   R(25,95)                1.0951         estimate D2E/DX2                !
 ! R61   R(26,27)                1.3513         estimate D2E/DX2                !
 ! R62   R(26,65)                1.2386         estimate D2E/DX2                !
 ! R63   R(27,28)                1.4597         estimate D2E/DX2                !
 ! R64   R(27,96)                1.0194         estimate D2E/DX2                !
 ! R65   R(28,29)                1.5409         estimate D2E/DX2                !
 ! R66   R(28,66)                1.5328         estimate D2E/DX2                !
 ! R67   R(28,97)                1.0952         estimate D2E/DX2                !
 ! R68   R(29,30)                1.3517         estimate D2E/DX2                !
 ! R69   R(29,67)                1.2379         estimate D2E/DX2                !
 ! R70   R(30,31)                1.4584         estimate D2E/DX2                !
 ! R71   R(30,98)                1.0195         estimate D2E/DX2                !
 ! R72   R(31,32)                1.541          estimate D2E/DX2                !
 ! R73   R(31,68)                1.5333         estimate D2E/DX2                !
 ! R74   R(31,99)                1.0953         estimate D2E/DX2                !
 ! R75   R(32,33)                1.3516         estimate D2E/DX2                !
 ! R76   R(32,69)                1.2389         estimate D2E/DX2                !
 ! R77   R(33,34)                1.4592         estimate D2E/DX2                !
 ! R78   R(33,100)               1.02           estimate D2E/DX2                !
 ! R79   R(34,35)                1.5415         estimate D2E/DX2                !
 ! R80   R(34,70)                1.5332         estimate D2E/DX2                !
 ! R81   R(34,101)               1.0954         estimate D2E/DX2                !
 ! R82   R(35,36)                1.3479         estimate D2E/DX2                !
 ! R83   R(35,71)                1.2417         estimate D2E/DX2                !
 ! R84   R(36,37)                1.4585         estimate D2E/DX2                !
 ! R85   R(36,102)               1.0205         estimate D2E/DX2                !
 ! R86   R(37,38)                1.541          estimate D2E/DX2                !
 ! R87   R(37,72)                1.5333         estimate D2E/DX2                !
 ! R88   R(37,103)               1.0953         estimate D2E/DX2                !
 ! R89   R(38,39)                1.3471         estimate D2E/DX2                !
 ! R90   R(38,73)                1.2423         estimate D2E/DX2                !
 ! R91   R(39,40)                1.4619         estimate D2E/DX2                !
 ! R92   R(39,104)               1.0208         estimate D2E/DX2                !
 ! R93   R(40,41)                1.5373         estimate D2E/DX2                !
 ! R94   R(40,74)                1.5345         estimate D2E/DX2                !
 ! R95   R(40,105)               1.0955         estimate D2E/DX2                !
 ! R96   R(41,42)                1.3489         estimate D2E/DX2                !
 ! R97   R(41,75)                1.2467         estimate D2E/DX2                !
 ! R98   R(42,43)                1.4564         estimate D2E/DX2                !
 ! R99   R(42,106)               1.0204         estimate D2E/DX2                !
 ! R100  R(43,44)                1.5433         estimate D2E/DX2                !
 ! R101  R(43,76)                1.5348         estimate D2E/DX2                !
 ! R102  R(43,107)               1.0939         estimate D2E/DX2                !
 ! R103  R(44,45)                1.3427         estimate D2E/DX2                !
 ! R104  R(44,77)                1.2473         estimate D2E/DX2                !
 ! R105  R(45,46)                1.4655         estimate D2E/DX2                !
 ! R106  R(45,108)               1.0228         estimate D2E/DX2                !
 ! R107  R(46,47)                1.5421         estimate D2E/DX2                !
 ! R108  R(46,109)               1.0915         estimate D2E/DX2                !
 ! R109  R(46,110)               1.5359         estimate D2E/DX2                !
 ! R110  R(47,48)                1.3421         estimate D2E/DX2                !
 ! R111  R(47,78)                1.2497         estimate D2E/DX2                !
 ! R112  R(48,111)               1.0157         estimate D2E/DX2                !
 ! R113  R(48,162)               1.4613         estimate D2E/DX2                !
 ! R114  R(50,118)               1.0931         estimate D2E/DX2                !
 ! R115  R(50,119)               1.0959         estimate D2E/DX2                !
 ! R116  R(50,120)               1.0957         estimate D2E/DX2                !
 ! R117  R(52,124)               1.0931         estimate D2E/DX2                !
 ! R118  R(52,125)               1.0954         estimate D2E/DX2                !
 ! R119  R(52,126)               1.0963         estimate D2E/DX2                !
 ! R120  R(54,112)               1.0938         estimate D2E/DX2                !
 ! R121  R(54,113)               1.0951         estimate D2E/DX2                !
 ! R122  R(54,114)               1.0953         estimate D2E/DX2                !
 ! R123  R(56,115)               1.0936         estimate D2E/DX2                !
 ! R124  R(56,116)               1.0956         estimate D2E/DX2                !
 ! R125  R(56,117)               1.0956         estimate D2E/DX2                !
 ! R126  R(58,121)               1.0937         estimate D2E/DX2                !
 ! R127  R(58,122)               1.0952         estimate D2E/DX2                !
 ! R128  R(58,123)               1.0954         estimate D2E/DX2                !
 ! R129  R(60,127)               1.0938         estimate D2E/DX2                !
 ! R130  R(60,128)               1.0949         estimate D2E/DX2                !
 ! R131  R(60,129)               1.0951         estimate D2E/DX2                !
 ! R132  R(62,130)               1.0939         estimate D2E/DX2                !
 ! R133  R(62,131)               1.095          estimate D2E/DX2                !
 ! R134  R(62,132)               1.095          estimate D2E/DX2                !
 ! R135  R(64,151)               1.094          estimate D2E/DX2                !
 ! R136  R(64,152)               1.095          estimate D2E/DX2                !
 ! R137  R(64,153)               1.0948         estimate D2E/DX2                !
 ! R138  R(66,136)               1.0939         estimate D2E/DX2                !
 ! R139  R(66,137)               1.095          estimate D2E/DX2                !
 ! R140  R(66,138)               1.095          estimate D2E/DX2                !
 ! R141  R(68,145)               1.0941         estimate D2E/DX2                !
 ! R142  R(68,146)               1.0949         estimate D2E/DX2                !
 ! R143  R(68,147)               1.0948         estimate D2E/DX2                !
 ! R144  R(70,139)               1.0941         estimate D2E/DX2                !
 ! R145  R(70,140)               1.095          estimate D2E/DX2                !
 ! R146  R(70,141)               1.0948         estimate D2E/DX2                !
 ! R147  R(72,133)               1.0939         estimate D2E/DX2                !
 ! R148  R(72,134)               1.0949         estimate D2E/DX2                !
 ! R149  R(72,135)               1.0944         estimate D2E/DX2                !
 ! R150  R(73,173)               1.9483         estimate D2E/DX2                !
 ! R151  R(74,142)               1.0934         estimate D2E/DX2                !
 ! R152  R(74,143)               1.0939         estimate D2E/DX2                !
 ! R153  R(74,144)               1.0956         estimate D2E/DX2                !
 ! R154  R(75,182)               1.8766         estimate D2E/DX2                !
 ! R155  R(76,148)               1.0941         estimate D2E/DX2                !
 ! R156  R(76,149)               1.094          estimate D2E/DX2                !
 ! R157  R(76,150)               1.0943         estimate D2E/DX2                !
 ! R158  R(77,161)               1.8651         estimate D2E/DX2                !
 ! R159  R(77,189)               1.7557         estimate D2E/DX2                !
 ! R160  R(78,170)               1.9455         estimate D2E/DX2                !
 ! R161  R(78,192)               1.8277         estimate D2E/DX2                !
 ! R162  R(110,154)              1.0939         estimate D2E/DX2                !
 ! R163  R(110,155)              1.0943         estimate D2E/DX2                !
 ! R164  R(110,156)              1.0953         estimate D2E/DX2                !
 ! R165  R(159,160)              0.9976         estimate D2E/DX2                !
 ! R166  R(159,161)              0.9742         estimate D2E/DX2                !
 ! R167  R(159,179)              1.7275         estimate D2E/DX2                !
 ! R168  R(160,190)              1.6944         estimate D2E/DX2                !
 ! R169  R(162,163)              1.092          estimate D2E/DX2                !
 ! R170  R(162,164)              1.0926         estimate D2E/DX2                !
 ! R171  R(162,165)              1.0928         estimate D2E/DX2                !
 ! R172  R(166,167)              0.9843         estimate D2E/DX2                !
 ! R173  R(166,168)              0.987          estimate D2E/DX2                !
 ! R174  R(166,171)              1.803          estimate D2E/DX2                !
 ! R175  R(166,183)              1.8233         estimate D2E/DX2                !
 ! R176  R(167,193)              1.8149         estimate D2E/DX2                !
 ! R177  R(168,187)              1.7825         estimate D2E/DX2                !
 ! R178  R(169,170)              0.9769         estimate D2E/DX2                !
 ! R179  R(169,171)              0.9857         estimate D2E/DX2                !
 ! R180  R(169,176)              2.016          estimate D2E/DX2                !
 ! R181  R(169,186)              1.8786         estimate D2E/DX2                !
 ! R182  R(172,173)              0.974          estimate D2E/DX2                !
 ! R183  R(172,174)              0.9897         estimate D2E/DX2                !
 ! R184  R(172,177)              1.9714         estimate D2E/DX2                !
 ! R185  R(174,181)              1.7464         estimate D2E/DX2                !
 ! R186  R(175,176)              0.9741         estimate D2E/DX2                !
 ! R187  R(175,177)              0.9749         estimate D2E/DX2                !
 ! R188  R(178,179)              0.9954         estimate D2E/DX2                !
 ! R189  R(178,180)              0.9735         estimate D2E/DX2                !
 ! R190  R(178,194)              1.6097         estimate D2E/DX2                !
 ! R191  R(181,182)              0.9775         estimate D2E/DX2                !
 ! R192  R(181,183)              0.9834         estimate D2E/DX2                !
 ! R193  R(184,185)              0.9787         estimate D2E/DX2                !
 ! R194  R(184,186)              0.9824         estimate D2E/DX2                !
 ! R195  R(184,191)              1.7203         estimate D2E/DX2                !
 ! R196  R(185,193)              1.8843         estimate D2E/DX2                !
 ! R197  R(187,188)              0.9757         estimate D2E/DX2                !
 ! R198  R(187,189)              0.9832         estimate D2E/DX2                !
 ! R199  R(190,191)              0.996          estimate D2E/DX2                !
 ! R200  R(190,192)              0.9796         estimate D2E/DX2                !
 ! R201  R(193,194)              1.0098         estimate D2E/DX2                !
 ! R202  R(193,195)              0.9653         estimate D2E/DX2                !
 ! A1    A(2,1,79)             109.1257         estimate D2E/DX2                !
 ! A2    A(2,1,157)            108.411          estimate D2E/DX2                !
 ! A3    A(2,1,158)            113.4359         estimate D2E/DX2                !
 ! A4    A(79,1,157)           107.3239         estimate D2E/DX2                !
 ! A5    A(79,1,158)           109.4538         estimate D2E/DX2                !
 ! A6    A(157,1,158)          108.9068         estimate D2E/DX2                !
 ! A7    A(1,2,3)              116.8022         estimate D2E/DX2                !
 ! A8    A(1,2,49)             122.1417         estimate D2E/DX2                !
 ! A9    A(3,2,49)             121.0505         estimate D2E/DX2                !
 ! A10   A(2,3,4)              121.062          estimate D2E/DX2                !
 ! A11   A(2,3,80)             118.1205         estimate D2E/DX2                !
 ! A12   A(4,3,80)             117.4936         estimate D2E/DX2                !
 ! A13   A(3,4,5)              112.527          estimate D2E/DX2                !
 ! A14   A(3,4,50)             110.2115         estimate D2E/DX2                !
 ! A15   A(3,4,81)             109.5906         estimate D2E/DX2                !
 ! A16   A(5,4,50)             110.4774         estimate D2E/DX2                !
 ! A17   A(5,4,81)             104.2644         estimate D2E/DX2                !
 ! A18   A(50,4,81)            109.5928         estimate D2E/DX2                !
 ! A19   A(4,5,6)              117.4218         estimate D2E/DX2                !
 ! A20   A(4,5,51)             120.0232         estimate D2E/DX2                !
 ! A21   A(6,5,51)             122.5284         estimate D2E/DX2                !
 ! A22   A(5,6,7)              121.2592         estimate D2E/DX2                !
 ! A23   A(5,6,82)             119.0187         estimate D2E/DX2                !
 ! A24   A(7,6,82)             119.7032         estimate D2E/DX2                !
 ! A25   A(6,7,8)              112.6392         estimate D2E/DX2                !
 ! A26   A(6,7,52)             110.3644         estimate D2E/DX2                !
 ! A27   A(6,7,83)             108.8708         estimate D2E/DX2                !
 ! A28   A(8,7,52)             110.4523         estimate D2E/DX2                !
 ! A29   A(8,7,83)             104.529          estimate D2E/DX2                !
 ! A30   A(52,7,83)            109.8029         estimate D2E/DX2                !
 ! A31   A(7,8,9)              116.8827         estimate D2E/DX2                !
 ! A32   A(7,8,53)             119.7487         estimate D2E/DX2                !
 ! A33   A(9,8,53)             123.2949         estimate D2E/DX2                !
 ! A34   A(8,9,10)             120.7716         estimate D2E/DX2                !
 ! A35   A(8,9,84)             118.7855         estimate D2E/DX2                !
 ! A36   A(10,9,84)            117.3083         estimate D2E/DX2                !
 ! A37   A(9,10,11)            112.1055         estimate D2E/DX2                !
 ! A38   A(9,10,54)            110.5189         estimate D2E/DX2                !
 ! A39   A(9,10,85)            108.1624         estimate D2E/DX2                !
 ! A40   A(11,10,54)           111.254          estimate D2E/DX2                !
 ! A41   A(11,10,85)           104.5039         estimate D2E/DX2                !
 ! A42   A(54,10,85)           110.0827         estimate D2E/DX2                !
 ! A43   A(10,11,12)           116.7809         estimate D2E/DX2                !
 ! A44   A(10,11,55)           120.6095         estimate D2E/DX2                !
 ! A45   A(12,11,55)           122.6093         estimate D2E/DX2                !
 ! A46   A(11,12,13)           120.7427         estimate D2E/DX2                !
 ! A47   A(11,12,86)           119.903          estimate D2E/DX2                !
 ! A48   A(13,12,86)           119.2431         estimate D2E/DX2                !
 ! A49   A(12,13,14)           111.7549         estimate D2E/DX2                !
 ! A50   A(12,13,56)           110.3722         estimate D2E/DX2                !
 ! A51   A(12,13,87)           109.1423         estimate D2E/DX2                !
 ! A52   A(14,13,56)           111.1567         estimate D2E/DX2                !
 ! A53   A(14,13,87)           104.2197         estimate D2E/DX2                !
 ! A54   A(56,13,87)           110.0117         estimate D2E/DX2                !
 ! A55   A(13,14,15)           116.8864         estimate D2E/DX2                !
 ! A56   A(13,14,57)           120.2            estimate D2E/DX2                !
 ! A57   A(15,14,57)           122.9114         estimate D2E/DX2                !
 ! A58   A(14,15,16)           120.797          estimate D2E/DX2                !
 ! A59   A(14,15,88)           120.1719         estimate D2E/DX2                !
 ! A60   A(16,15,88)           118.9343         estimate D2E/DX2                !
 ! A61   A(15,16,17)           112.0106         estimate D2E/DX2                !
 ! A62   A(15,16,58)           110.3058         estimate D2E/DX2                !
 ! A63   A(15,16,89)           109.3785         estimate D2E/DX2                !
 ! A64   A(17,16,58)           110.8114         estimate D2E/DX2                !
 ! A65   A(17,16,89)           104.1821         estimate D2E/DX2                !
 ! A66   A(58,16,89)           109.979          estimate D2E/DX2                !
 ! A67   A(16,17,18)           117.1248         estimate D2E/DX2                !
 ! A68   A(16,17,59)           120.1355         estimate D2E/DX2                !
 ! A69   A(18,17,59)           122.7343         estimate D2E/DX2                !
 ! A70   A(17,18,19)           120.6381         estimate D2E/DX2                !
 ! A71   A(17,18,90)           120.5554         estimate D2E/DX2                !
 ! A72   A(19,18,90)           118.7825         estimate D2E/DX2                !
 ! A73   A(18,19,20)           111.9116         estimate D2E/DX2                !
 ! A74   A(18,19,60)           110.3103         estimate D2E/DX2                !
 ! A75   A(18,19,91)           109.3569         estimate D2E/DX2                !
 ! A76   A(20,19,60)           110.8661         estimate D2E/DX2                !
 ! A77   A(20,19,91)           104.1859         estimate D2E/DX2                !
 ! A78   A(60,19,91)           110.0383         estimate D2E/DX2                !
 ! A79   A(19,20,21)           116.9784         estimate D2E/DX2                !
 ! A80   A(19,20,61)           120.1936         estimate D2E/DX2                !
 ! A81   A(21,20,61)           122.8181         estimate D2E/DX2                !
 ! A82   A(20,21,22)           120.6929         estimate D2E/DX2                !
 ! A83   A(20,21,92)           120.3451         estimate D2E/DX2                !
 ! A84   A(22,21,92)           118.96           estimate D2E/DX2                !
 ! A85   A(21,22,23)           112.0209         estimate D2E/DX2                !
 ! A86   A(21,22,62)           110.2792         estimate D2E/DX2                !
 ! A87   A(21,22,93)           109.2978         estimate D2E/DX2                !
 ! A88   A(23,22,62)           110.8541         estimate D2E/DX2                !
 ! A89   A(23,22,93)           104.1689         estimate D2E/DX2                !
 ! A90   A(62,22,93)           110.0476         estimate D2E/DX2                !
 ! A91   A(22,23,24)           116.8757         estimate D2E/DX2                !
 ! A92   A(22,23,63)           120.2791         estimate D2E/DX2                !
 ! A93   A(24,23,63)           122.8394         estimate D2E/DX2                !
 ! A94   A(23,24,25)           120.696          estimate D2E/DX2                !
 ! A95   A(23,24,94)           120.4095         estimate D2E/DX2                !
 ! A96   A(25,24,94)           118.892          estimate D2E/DX2                !
 ! A97   A(24,25,26)           111.9263         estimate D2E/DX2                !
 ! A98   A(24,25,64)           110.3011         estimate D2E/DX2                !
 ! A99   A(24,25,95)           109.3731         estimate D2E/DX2                !
 ! A100  A(26,25,64)           110.8514         estimate D2E/DX2                !
 ! A101  A(26,25,95)           104.1353         estimate D2E/DX2                !
 ! A102  A(64,25,95)           110.0817         estimate D2E/DX2                !
 ! A103  A(25,26,27)           117.0409         estimate D2E/DX2                !
 ! A104  A(25,26,65)           120.1051         estimate D2E/DX2                !
 ! A105  A(27,26,65)           122.8467         estimate D2E/DX2                !
 ! A106  A(26,27,28)           120.6904         estimate D2E/DX2                !
 ! A107  A(26,27,96)           120.4259         estimate D2E/DX2                !
 ! A108  A(28,27,96)           118.8814         estimate D2E/DX2                !
 ! A109  A(27,28,29)           111.9697         estimate D2E/DX2                !
 ! A110  A(27,28,66)           110.3912         estimate D2E/DX2                !
 ! A111  A(27,28,97)           109.3441         estimate D2E/DX2                !
 ! A112  A(29,28,66)           110.7934         estimate D2E/DX2                !
 ! A113  A(29,28,97)           104.1821         estimate D2E/DX2                !
 ! A114  A(66,28,97)           109.9808         estimate D2E/DX2                !
 ! A115  A(28,29,30)           116.9547         estimate D2E/DX2                !
 ! A116  A(28,29,67)           120.2806         estimate D2E/DX2                !
 ! A117  A(30,29,67)           122.7598         estimate D2E/DX2                !
 ! A118  A(29,30,31)           120.5714         estimate D2E/DX2                !
 ! A119  A(29,30,98)           120.5055         estimate D2E/DX2                !
 ! A120  A(31,30,98)           118.9173         estimate D2E/DX2                !
 ! A121  A(30,31,32)           111.8155         estimate D2E/DX2                !
 ! A122  A(30,31,68)           110.2501         estimate D2E/DX2                !
 ! A123  A(30,31,99)           109.4699         estimate D2E/DX2                !
 ! A124  A(32,31,68)           110.905          estimate D2E/DX2                !
 ! A125  A(32,31,99)           104.1048         estimate D2E/DX2                !
 ! A126  A(68,31,99)           110.1295         estimate D2E/DX2                !
 ! A127  A(31,32,33)           117.1143         estimate D2E/DX2                !
 ! A128  A(31,32,69)           120.275          estimate D2E/DX2                !
 ! A129  A(33,32,69)           122.6029         estimate D2E/DX2                !
 ! A130  A(32,33,34)           120.4211         estimate D2E/DX2                !
 ! A131  A(32,33,100)          120.538          estimate D2E/DX2                !
 ! A132  A(34,33,100)          119.0402         estimate D2E/DX2                !
 ! A133  A(33,34,35)           111.9138         estimate D2E/DX2                !
 ! A134  A(33,34,70)           110.3147         estimate D2E/DX2                !
 ! A135  A(33,34,101)          109.4083         estimate D2E/DX2                !
 ! A136  A(35,34,70)           110.7448         estimate D2E/DX2                !
 ! A137  A(35,34,101)          104.3043         estimate D2E/DX2                !
 ! A138  A(70,34,101)          109.9891         estimate D2E/DX2                !
 ! A139  A(34,35,36)           116.7538         estimate D2E/DX2                !
 ! A140  A(34,35,71)           120.4301         estimate D2E/DX2                !
 ! A141  A(36,35,71)           122.8088         estimate D2E/DX2                !
 ! A142  A(35,36,37)           121.0377         estimate D2E/DX2                !
 ! A143  A(35,36,102)          120.3314         estimate D2E/DX2                !
 ! A144  A(37,36,102)          118.617          estimate D2E/DX2                !
 ! A145  A(36,37,38)           112.3076         estimate D2E/DX2                !
 ! A146  A(36,37,72)           110.3867         estimate D2E/DX2                !
 ! A147  A(36,37,103)          109.3451         estimate D2E/DX2                !
 ! A148  A(38,37,72)           110.5266         estimate D2E/DX2                !
 ! A149  A(38,37,103)          104.1977         estimate D2E/DX2                !
 ! A150  A(72,37,103)          109.895          estimate D2E/DX2                !
 ! A151  A(37,38,39)           117.5066         estimate D2E/DX2                !
 ! A152  A(37,38,73)           119.4549         estimate D2E/DX2                !
 ! A153  A(39,38,73)           123.0319         estimate D2E/DX2                !
 ! A154  A(38,39,40)           121.1849         estimate D2E/DX2                !
 ! A155  A(38,39,104)          119.9036         estimate D2E/DX2                !
 ! A156  A(40,39,104)          118.8168         estimate D2E/DX2                !
 ! A157  A(39,40,41)           112.2867         estimate D2E/DX2                !
 ! A158  A(39,40,74)           110.087          estimate D2E/DX2                !
 ! A159  A(39,40,105)          109.863          estimate D2E/DX2                !
 ! A160  A(41,40,74)           109.7161         estimate D2E/DX2                !
 ! A161  A(41,40,105)          106.4184         estimate D2E/DX2                !
 ! A162  A(74,40,105)          108.3357         estimate D2E/DX2                !
 ! A163  A(40,41,42)           117.2931         estimate D2E/DX2                !
 ! A164  A(40,41,75)           120.1905         estimate D2E/DX2                !
 ! A165  A(42,41,75)           122.4564         estimate D2E/DX2                !
 ! A166  A(41,42,43)           121.8397         estimate D2E/DX2                !
 ! A167  A(41,42,106)          119.5534         estimate D2E/DX2                !
 ! A168  A(43,42,106)          118.1714         estimate D2E/DX2                !
 ! A169  A(42,43,44)           113.4734         estimate D2E/DX2                !
 ! A170  A(42,43,76)           110.5991         estimate D2E/DX2                !
 ! A171  A(42,43,107)          108.8049         estimate D2E/DX2                !
 ! A172  A(44,43,76)           109.6551         estimate D2E/DX2                !
 ! A173  A(44,43,107)          104.6317         estimate D2E/DX2                !
 ! A174  A(76,43,107)          109.4614         estimate D2E/DX2                !
 ! A175  A(43,44,45)           117.8759         estimate D2E/DX2                !
 ! A176  A(43,44,77)           118.7177         estimate D2E/DX2                !
 ! A177  A(45,44,77)           123.336          estimate D2E/DX2                !
 ! A178  A(44,45,46)           122.122          estimate D2E/DX2                !
 ! A179  A(44,45,108)          119.4157         estimate D2E/DX2                !
 ! A180  A(46,45,108)          118.3832         estimate D2E/DX2                !
 ! A181  A(45,46,47)           113.1903         estimate D2E/DX2                !
 ! A182  A(45,46,109)          108.238          estimate D2E/DX2                !
 ! A183  A(45,46,110)          110.5225         estimate D2E/DX2                !
 ! A184  A(47,46,109)          106.4616         estimate D2E/DX2                !
 ! A185  A(47,46,110)          109.6307         estimate D2E/DX2                !
 ! A186  A(109,46,110)         108.616          estimate D2E/DX2                !
 ! A187  A(46,47,48)           117.5712         estimate D2E/DX2                !
 ! A188  A(46,47,78)           119.876          estimate D2E/DX2                !
 ! A189  A(48,47,78)           122.3466         estimate D2E/DX2                !
 ! A190  A(47,48,111)          119.9063         estimate D2E/DX2                !
 ! A191  A(47,48,162)          122.39           estimate D2E/DX2                !
 ! A192  A(111,48,162)         116.4071         estimate D2E/DX2                !
 ! A193  A(4,50,118)           109.7289         estimate D2E/DX2                !
 ! A194  A(4,50,119)           110.5949         estimate D2E/DX2                !
 ! A195  A(4,50,120)           111.5057         estimate D2E/DX2                !
 ! A196  A(118,50,119)         107.823          estimate D2E/DX2                !
 ! A197  A(118,50,120)         108.3544         estimate D2E/DX2                !
 ! A198  A(119,50,120)         108.7323         estimate D2E/DX2                !
 ! A199  A(7,52,124)           109.6516         estimate D2E/DX2                !
 ! A200  A(7,52,125)           110.6368         estimate D2E/DX2                !
 ! A201  A(7,52,126)           111.3536         estimate D2E/DX2                !
 ! A202  A(124,52,125)         108.0903         estimate D2E/DX2                !
 ! A203  A(124,52,126)         108.0621         estimate D2E/DX2                !
 ! A204  A(125,52,126)         108.9527         estimate D2E/DX2                !
 ! A205  A(10,54,112)          109.7931         estimate D2E/DX2                !
 ! A206  A(10,54,113)          110.2145         estimate D2E/DX2                !
 ! A207  A(10,54,114)          111.2812         estimate D2E/DX2                !
 ! A208  A(112,54,113)         108.2037         estimate D2E/DX2                !
 ! A209  A(112,54,114)         108.5409         estimate D2E/DX2                !
 ! A210  A(113,54,114)         108.734          estimate D2E/DX2                !
 ! A211  A(13,56,115)          109.7899         estimate D2E/DX2                !
 ! A212  A(13,56,116)          110.3899         estimate D2E/DX2                !
 ! A213  A(13,56,117)          110.9642         estimate D2E/DX2                !
 ! A214  A(115,56,116)         108.1526         estimate D2E/DX2                !
 ! A215  A(115,56,117)         108.5104         estimate D2E/DX2                !
 ! A216  A(116,56,117)         108.9653         estimate D2E/DX2                !
 ! A217  A(16,58,121)          109.7183         estimate D2E/DX2                !
 ! A218  A(16,58,122)          110.4187         estimate D2E/DX2                !
 ! A219  A(16,58,123)          110.9912         estimate D2E/DX2                !
 ! A220  A(121,58,122)         108.3906         estimate D2E/DX2                !
 ! A221  A(121,58,123)         108.5323         estimate D2E/DX2                !
 ! A222  A(122,58,123)         108.7256         estimate D2E/DX2                !
 ! A223  A(19,60,127)          109.698          estimate D2E/DX2                !
 ! A224  A(19,60,128)          110.3817         estimate D2E/DX2                !
 ! A225  A(19,60,129)          110.9103         estimate D2E/DX2                !
 ! A226  A(127,60,128)         108.5397         estimate D2E/DX2                !
 ! A227  A(127,60,129)         108.7143         estimate D2E/DX2                !
 ! A228  A(128,60,129)         108.5405         estimate D2E/DX2                !
 ! A229  A(22,62,130)          109.7455         estimate D2E/DX2                !
 ! A230  A(22,62,131)          110.371          estimate D2E/DX2                !
 ! A231  A(22,62,132)          110.8442         estimate D2E/DX2                !
 ! A232  A(130,62,131)         108.5301         estimate D2E/DX2                !
 ! A233  A(130,62,132)         108.776          estimate D2E/DX2                !
 ! A234  A(131,62,132)         108.5191         estimate D2E/DX2                !
 ! A235  A(25,64,151)          109.7578         estimate D2E/DX2                !
 ! A236  A(25,64,152)          110.3183         estimate D2E/DX2                !
 ! A237  A(25,64,153)          110.8216         estimate D2E/DX2                !
 ! A238  A(151,64,152)         108.5854         estimate D2E/DX2                !
 ! A239  A(151,64,153)         108.8011         estimate D2E/DX2                !
 ! A240  A(152,64,153)         108.5041         estimate D2E/DX2                !
 ! A241  A(28,66,136)          109.669          estimate D2E/DX2                !
 ! A242  A(28,66,137)          110.358          estimate D2E/DX2                !
 ! A243  A(28,66,138)          110.8666         estimate D2E/DX2                !
 ! A244  A(136,66,137)         108.5566         estimate D2E/DX2                !
 ! A245  A(136,66,138)         108.8474         estimate D2E/DX2                !
 ! A246  A(137,66,138)         108.4904         estimate D2E/DX2                !
 ! A247  A(31,68,145)          109.7867         estimate D2E/DX2                !
 ! A248  A(31,68,146)          110.2667         estimate D2E/DX2                !
 ! A249  A(31,68,147)          110.8062         estimate D2E/DX2                !
 ! A250  A(145,68,146)         108.6107         estimate D2E/DX2                !
 ! A251  A(145,68,147)         108.8761         estimate D2E/DX2                !
 ! A252  A(146,68,147)         108.4435         estimate D2E/DX2                !
 ! A253  A(34,70,139)          109.7577         estimate D2E/DX2                !
 ! A254  A(34,70,140)          110.3187         estimate D2E/DX2                !
 ! A255  A(34,70,141)          110.8047         estimate D2E/DX2                !
 ! A256  A(139,70,140)         108.596          estimate D2E/DX2                !
 ! A257  A(139,70,141)         108.8764         estimate D2E/DX2                !
 ! A258  A(140,70,141)         108.4357         estimate D2E/DX2                !
 ! A259  A(37,72,133)          109.7038         estimate D2E/DX2                !
 ! A260  A(37,72,134)          110.2837         estimate D2E/DX2                !
 ! A261  A(37,72,135)          110.7144         estimate D2E/DX2                !
 ! A262  A(133,72,134)         108.7261         estimate D2E/DX2                !
 ! A263  A(133,72,135)         108.8239         estimate D2E/DX2                !
 ! A264  A(134,72,135)         108.5429         estimate D2E/DX2                !
 ! A265  A(38,73,173)          137.6292         estimate D2E/DX2                !
 ! A266  A(40,74,142)          109.4997         estimate D2E/DX2                !
 ! A267  A(40,74,143)          109.5993         estimate D2E/DX2                !
 ! A268  A(40,74,144)          111.2948         estimate D2E/DX2                !
 ! A269  A(142,74,143)         108.2214         estimate D2E/DX2                !
 ! A270  A(142,74,144)         109.2123         estimate D2E/DX2                !
 ! A271  A(143,74,144)         108.9551         estimate D2E/DX2                !
 ! A272  A(41,75,182)          127.1603         estimate D2E/DX2                !
 ! A273  A(43,76,148)          109.7083         estimate D2E/DX2                !
 ! A274  A(43,76,149)          110.1326         estimate D2E/DX2                !
 ! A275  A(43,76,150)          111.0339         estimate D2E/DX2                !
 ! A276  A(148,76,149)         108.997          estimate D2E/DX2                !
 ! A277  A(148,76,150)         108.8786         estimate D2E/DX2                !
 ! A278  A(149,76,150)         108.0426         estimate D2E/DX2                !
 ! A279  A(44,77,161)          156.8928         estimate D2E/DX2                !
 ! A280  A(44,77,189)          114.9522         estimate D2E/DX2                !
 ! A281  A(161,77,189)          83.3323         estimate D2E/DX2                !
 ! A282  A(47,78,170)          114.6691         estimate D2E/DX2                !
 ! A283  A(47,78,192)          131.1612         estimate D2E/DX2                !
 ! A284  A(170,78,192)          87.0439         estimate D2E/DX2                !
 ! A285  A(46,110,154)         109.5129         estimate D2E/DX2                !
 ! A286  A(46,110,155)         109.7308         estimate D2E/DX2                !
 ! A287  A(46,110,156)         111.3163         estimate D2E/DX2                !
 ! A288  A(154,110,155)        107.9881         estimate D2E/DX2                !
 ! A289  A(154,110,156)        109.0464         estimate D2E/DX2                !
 ! A290  A(155,110,156)        109.1794         estimate D2E/DX2                !
 ! A291  A(160,159,161)        104.4397         estimate D2E/DX2                !
 ! A292  A(160,159,179)        108.5692         estimate D2E/DX2                !
 ! A293  A(161,159,179)        107.2148         estimate D2E/DX2                !
 ! A294  A(48,162,163)         113.1861         estimate D2E/DX2                !
 ! A295  A(48,162,164)         109.2065         estimate D2E/DX2                !
 ! A296  A(48,162,165)         108.3575         estimate D2E/DX2                !
 ! A297  A(163,162,164)        108.0994         estimate D2E/DX2                !
 ! A298  A(163,162,165)        108.3521         estimate D2E/DX2                !
 ! A299  A(164,162,165)        109.5985         estimate D2E/DX2                !
 ! A300  A(167,166,168)        104.1983         estimate D2E/DX2                !
 ! A301  A(167,166,171)         99.9539         estimate D2E/DX2                !
[...]
 GradGradGradGradGradGradGradGradGradGradGradGradGradGradGradGradGradGrad

 Leave Link  103 at Mon Jan 31 11:21:43 2022, MaxMem=  8589934592 cpu:              15.5 elap:               0.8
 (Enter /share/apps/g16.b01_avx2/g16/l202.exe)
 Stoichiometry    C48H104N16O27
 Framework group  C1[X(C48H104N16O27)]
 Deg. of freedom   579
 Full point group                 C1      NOp   1
 RotChk:  IX=0 Diff= 6.31D-03
 Largest Abelian subgroup         C1      NOp   1
 Largest concise Abelian subgroup C1      NOp   1
                         Standard orientation:                         
 ---------------------------------------------------------------------
 Center     Atomic      Atomic             Coordinates (Angstroms)
 Number     Number       Type             X           Y           Z
 ---------------------------------------------------------------------
      1          6           0      -14.742603   -1.794440   -0.861282
      2          6           0      -13.551895   -0.895435   -1.037773
      3          7           0      -13.791602    0.409986   -1.331070
      4          6           0      -12.702935    1.288990   -1.725910
      5          6           0      -11.637715    1.416496   -0.640005
      6          7           0      -12.043458    1.370711    0.644593
      7          6           0      -11.087822    1.488551    1.730304
      8          6           0      -10.067846    0.345052    1.740262
      9          7           0      -10.500475   -0.869161    1.345332
     10          6           0       -9.577856   -1.987314    1.263522
     11          6           0       -8.551714   -1.794436    0.144664
     12          7           0       -8.999596   -1.245247   -1.001214
     13          6           0       -8.078202   -0.915553   -2.071938
     14          6           0       -7.044825    0.123445   -1.621743
     15          7           0       -7.500081    1.135086   -0.861041
     16          6           0       -6.592979    2.144617   -0.351629
     17          6           0       -5.548286    1.530562    0.585286
     18          7           0       -5.994519    0.624667    1.471244
     19          6           0       -5.075636   -0.043024    2.371671
     20          6           0       -4.042106   -0.867419    1.598786
     21          7           0       -4.494802   -1.547677    0.533116
     22          6           0       -3.590045   -2.328301   -0.285984
     23          6           0       -2.528705   -1.442908   -0.945605
     24          7           0       -2.952941   -0.270990   -1.444281
     25          6           0       -2.021205    0.659709   -2.047427
     26          6           0       -0.986556    1.153501   -1.031473
     27          7           0       -1.447403    1.460349    0.191202
     28          6           0       -0.542848    1.896708    1.235066
     29          6           0        0.479214    0.809098    1.576465
     30          7           0        0.015155   -0.448123    1.647631
     31          6           0        0.914944   -1.552602    1.907867
     32          6           0        1.959284   -1.690550    0.796241
     33          7           0        1.513765   -1.559701   -0.463585
     34          6           0        2.432194   -1.623146   -1.581559
     35          6           0        3.481047   -0.510169   -1.502380
     36          7           0        3.037483    0.694962   -1.117669
     37          6           0        3.947822    1.809901   -0.971768
     38          6           0        4.979469    1.554386    0.127175
     39          7           0        4.538831    1.030867    1.278367
     40          6           0        5.466811    0.734781    2.352059
     41          6           0        6.432149   -0.394656    1.985983
     42          7           0        5.985314   -1.312532    1.119102
     43          6           0        6.798549   -2.435622    0.714212
     44          6           0        7.877100   -2.054051   -0.304217
     45          7           0        7.525504   -1.212163   -1.284434
     46          6           0        8.422744   -0.919055   -2.386874
     47          6           0        8.904633    0.531117   -2.454783
     48          7           0        8.049036    1.491466   -2.108476
     49          8           0      -12.395950   -1.305278   -0.908110
     50          6           0      -13.239669    2.664370   -2.104068
     51          8           0      -10.461275    1.587148   -0.954012
     52          6           0      -11.809404    1.566351    3.069197
     53          8           0       -8.927071    0.552018    2.150730
     54          6           0      -10.337860   -3.296351    1.089172
     55          8           0       -7.382869   -2.144959    0.301500
     56          6           0       -8.843371   -0.431083   -3.296468
     57          8           0       -5.867094    0.020364   -1.964981
     58          6           0       -7.375000    3.243132    0.358078
     59          8           0       -4.368417    1.879993    0.520175
     60          6           0       -5.845840   -0.924862    3.346812
     61          8           0       -2.866397   -0.902923    1.968585
     62          6           0       -4.373405   -3.103460   -1.338648
     63          8           0       -1.357987   -1.823507   -1.025270
     64          6           0       -2.775233    1.833207   -2.660825
     65          8           0        0.197542    1.279027   -1.355209
     66          6           0       -1.329455    2.304901    2.474560
     67          8           0        1.658786    1.102696    1.788504
     68          6           0        0.124530   -2.844972    2.071529
     69          8           0        3.139184   -1.927774    1.067650
     70          6           0        1.662929   -1.542112   -2.894709
     71          8           0        4.659694   -0.731438   -1.801554
     72          6           0        3.175066    3.092656   -0.686469
     73          8           0        6.167201    1.843401   -0.055655
     74          6           0        4.702304    0.371232    3.620210
     75          8           0        7.550132   -0.453315    2.515123
     76          6           0        5.920238   -3.541452    0.135001
     77          8           0        9.001044   -2.569488   -0.212859
     78          8           0       10.030226    0.764361   -2.928274
     79          1           0      -14.625318   -2.361710    0.064829
     80          1           0      -14.736676    0.698658   -1.540307
     81          1           0      -12.171567    0.849594   -2.578529
     82          1           0      -13.018827    1.201555    0.846243
     83          1           0      -10.491968    2.393600    1.573596
     84          1           0      -11.380119   -0.947446    0.845500
     85          1           0       -8.987484   -2.008576    2.183852
     86          1           0       -9.962709   -0.940608   -1.068789
     87          1           0       -7.489774   -1.805418   -2.317189
     88          1           0       -8.493910    1.218676   -0.671489
     89          1           0       -6.013215    2.561946   -1.181966
     90          1           0       -6.988851    0.428660    1.543711
     91          1           0       -4.488829    0.706311    2.914460
     92          1           0       -5.485462   -1.535275    0.305464
     93          1           0       -3.024197   -3.015036    0.353040
     94          1           0       -3.939774   -0.029376   -1.403822
     95          1           0       -1.435913    0.139000   -2.813246
     96          1           0       -2.442775    1.393741    0.390670
     97          1           0        0.055294    2.737603    0.866988
     98          1           0       -0.978339   -0.631962    1.525912
     99          1           0        1.495891   -1.341043    2.812420
    100          1           0        0.521242   -1.421180   -0.642527
    101          1           0        3.004851   -2.556051   -1.531024
    102          1           0        2.043993    0.839373   -0.947724
    103          1           0        4.537057    1.916710   -1.889487
    104          1           0        3.543550    0.860255    1.414021
    105          1           0        6.099804    1.611263    2.530489
    106          1           0        5.006968   -1.295077    0.841500
    107          1           0        7.346627   -2.810653    1.584601
    108          1           0        6.544137   -0.943300   -1.357657
    109          1           0        9.319633   -1.521707   -2.233067
    110          6           0        7.770726   -1.289452   -3.719546
    111          1           0        7.249236    1.282909   -1.516308
    112          1           0       -9.631717   -4.125792    1.004681
    113          1           0      -10.979295   -3.476977    1.956655
    114          1           0      -10.959614   -3.271193    0.188886
    115          1           0       -8.143539   -0.182293   -4.097692
    116          1           0       -9.515220   -1.215950   -3.657271
    117          1           0       -9.430605    0.461462   -3.056470
    118          1           0      -12.412484    3.316380   -2.392906
    119          1           0      -13.922669    2.589994   -2.955961
    120          1           0      -13.768021    3.129833   -1.265580
    121          1           0       -6.687641    4.004637    0.734071
    122          1           0       -8.075419    3.719075   -0.334925
    123          1           0       -7.935460    2.830502    1.203533
    124          1           0      -11.079018    1.652686    3.876461
    125          1           0      -12.462692    2.443303    3.103366
    126          1           0      -12.408359    0.666674    3.248168
    127          1           0       -5.149199   -1.423064    4.025223
    128          1           0       -6.539692   -0.320394    3.938183
    129          1           0       -6.415763   -1.686881    2.805367
    130          1           0       -3.687044   -3.690643   -1.953540
    131          1           0       -5.083584   -3.782647   -0.858136
    132          1           0       -4.927907   -2.415786   -1.985160
    133          1           0        3.871646    3.927359   -0.575880
    134          1           0        2.489544    3.309809   -1.510729
    135          1           0        2.594674    2.989767    0.235505
    136          1           0       -0.642001    2.632346    3.258281
    137          1           0       -2.009039    3.128245    2.236088
    138          1           0       -1.917907    1.460596    2.847723
    139          1           0        2.358717   -1.590019   -3.736109
    140          1           0        0.958943   -2.375880   -2.971589
    141          1           0        1.102059   -0.603714   -2.948931
    142          1           0        5.407826    0.145254    4.422973
    143          1           0        4.070746    1.208316    3.929889
    144          1           0        4.067667   -0.503566    3.444507
    145          1           0        0.807536   -3.675118    2.268186
    146          1           0       -0.573100   -2.756939    2.909492
    147          1           0       -0.445653   -3.061396    1.162502
    148          1           0        6.540911   -4.390384   -0.162246
    149          1           0        5.193461   -3.871559    0.881810
    150          1           0        5.374802   -3.174612   -0.740210
    151          1           0       -2.067740    2.530961   -3.115347
    152          1           0       -3.464192    1.477765   -3.432602
    153          1           0       -3.350140    2.360777   -1.893113
    154          1           0        8.445460   -1.047914   -4.545022
    155          1           0        7.553646   -2.361256   -3.742665
    156          1           0        6.833420   -0.740395   -3.855457
    157          1           0      -14.753148   -2.515717   -1.684067
    158          1           0      -15.696557   -1.262495   -0.844620
    159          8           0       11.799960   -2.977428   -0.911470
    160          1           0       12.018221   -2.257433   -1.556424
    161          1           0       10.835928   -2.967255   -0.840116
    162          6           0        8.336839    2.899886   -2.310499
    163          1           0        8.886352    3.348997   -1.478878
    164          1           0        8.930295    3.015080   -3.219636
    165          1           0        7.388945    3.430946   -2.421360
    166          8           0       11.206234    0.788637    1.542709
    167          1           0       12.170765    0.683736    1.661973
    168          1           0       10.852578   -0.120579    1.635046
    169          8           0       11.364733    2.253705   -0.797486
    170          1           0       10.919871    1.860807   -1.567251
    171          1           0       11.155935    1.678794   -0.032076
    172          8           0        7.904129    3.680017    1.461191
    173          1           0        7.381248    3.085305    0.907811
    174          1           0        8.357899    3.092888    2.105326
    175          8           0       10.069729    4.798189   -0.061432
    176          1           0       10.626951    4.026635   -0.246475
    177          1           0        9.359071    4.474839    0.520985
    178          8           0       12.816796   -2.462096    1.531518
    179          1           0       12.506114   -2.699741    0.619311
    180          1           0       12.002109   -2.354979    2.044425
    181          8           0        9.127162    1.856808    3.107052
    182          1           0        8.576946    1.061198    3.024707
    183          1           0        9.964875    1.627457    2.660563
    184          8           0       13.812165    0.897654   -1.214824
    185          1           0       13.964430    0.548758   -0.319449
    186          1           0       13.100535    1.554677   -1.098546
    187          8           0       10.105075   -1.697799    2.129514
    188          1           0        9.284079   -1.382350    2.539741
    189          1           0        9.793979   -2.125104    1.306995
    190          8           0       12.326318   -0.949132   -2.613875
    191          1           0       12.945827   -0.328469   -2.166127
    192          1           0       11.549679   -0.408413   -2.835473
    193          8           0       13.844413   -0.069249    1.453609
    194          1           0       13.546927   -1.027428    1.483422
    195          1           0       14.596585    0.017154    2.044274
 ---------------------------------------------------------------------
 Rotational constants (GHZ):           0.0604631           0.0056471           0.0056284
 Leave Link  202 at Mon Jan 31 11:21:43 2022, MaxMem=  8589934592 cpu:               0.1 elap:               0.0
 (Enter /share/apps/g16.b01_avx2/g16/l301.exe)
 Standard basis: 6-31+G(d,p) (6D, 7F)
 Ernie: Thresh=  0.10000D-02 Tol=  0.10000D-05 Strict=F.
 There are  2249 symmetry adapted cartesian basis functions of A   symmetry.
 There are  2249 symmetry adapted basis functions of A   symmetry.
  2249 basis functions,  3640 primitive gaussians,  2249 cartesian basis functions
   360 alpha electrons      360 beta electrons
       nuclear repulsion energy     19793.9591297586 Hartrees.
 IExCor= 1009 DFT=T Ex+Corr=PBE1PBE ExCW=0 ScaHFX=  0.250000
 ScaDFX=  0.750000  0.750000  1.000000  1.000000 ScalE2=  1.000000  1.000000
 IRadAn=  99590 IRanWt=     -1 IRanGd=            0 ICorTp=0 IEmpDi=131
 NAtoms=  195 NActive=  195 NUniq=  195 SFac= 1.00D+00 NAtFMM=   60 NAOKFM=T Big=T
 Integral buffers will be    131072 words long.
 Raffenetti 2 integral format.
 Two-electron integral symmetry is turned on.
 R6Disp:  Grimme-D3 Dispersion energy=       -0.2188122207 Hartrees.
 Nuclear repulsion after empirical dispersion term =    19793.7403175379 Hartrees.
 Leave Link  301 at Mon Jan 31 11:21:43 2022, MaxMem=  8589934592 cpu:               0.5 elap:               0.0
 (Enter /share/apps/g16.b01_avx2/g16/l302.exe)
 NPDir=0 NMtPBC=     1 NCelOv=     1 NCel=       1 NClECP=     1 NCelD=      1
         NCelK=      1 NCelE2=     1 NClLst=     1 CellRange=     0.0.
 One-electron integrals computed using PRISM.
 One-electron integral symmetry used in STVInt
 NBasis=  2249 RedAO= T EigKep=  2.47D-06  NBF=  2249
 NBsUse=  2249 1.00D-06 EigRej= -1.00D+00 NBFU=  2249
 Precomputing XC quadrature grid using
 IXCGrd= 4 IRadAn=       99590 IRanWt=          -1 IRanGd=           0 AccXCQ= 0.00D+00.
 Generated NRdTot=       0 NPtTot=           0 NUsed=           0 NTot=          32
 NSgBfM=  1689  1654  1670  1682  1689 MxSgAt=   195 MxSgA2=   192.
 Leave Link  302 at Mon Jan 31 11:21:52 2022, MaxMem=  8589934592 cpu:             220.6 elap:               9.2
 (Enter /share/apps/g16.b01_avx2/g16/l303.exe)
 DipDrv:  MaxL=1.
 Leave Link  303 at Mon Jan 31 11:21:52 2022, MaxMem=  8589934592 cpu:               6.4 elap:               0.4
 (Enter /share/apps/g16.b01_avx2/g16/l401.exe)
 Initial guess from the checkpoint file:  "/scratch/Gau-30242.chk"
 B after Tr=    -0.000000    0.000000    0.000000
         Rot=    0.999997    0.002566   -0.000131    0.000105 Ang=   0.29 deg.
 Guess basis will be translated and rotated to current coordinates.
 JPrj=2 DoOrth=T DoCkMO=T.
 Generating alternative initial guess.
 ExpMin= 4.38D-02 ExpMax= 5.48D+03 ExpMxC= 8.25D+02 IAcc=4 IRadAn=    199590 AccDes= 0.00D+00
 Harris functional with IExCor= 1009 and IRadAn=  199590 diagonalized for initial guess.
 HarFok:  IExCor= 1009 AccDes= 0.00D+00 IRadAn=    199590 IDoV= 1 UseB2=F ITyADJ=14
 ICtDFT=  3500011 ScaDFX=  1.000000  1.000000  1.000000  1.000000
 FoFCou: FMM=F IPFlag=           0 FMFlag=      100000 FMFlg1=        2001
         NFxFlg=           0 DoJE=T BraDBF=F KetDBF=T FulRan=T
         wScrn=  0.000000 ICntrl=       500 IOpCl=  0 I1Cent=   200000004 NGrid=           0
         NMat0=    1 NMatS0=      1 NMatT0=    0 NMatD0=    1 NMtDS0=    0 NMtDT0=    0
 Petite list used in FoFCou.
 Harris En= -4795.64596623510    
 Leave Link  401 at Mon Jan 31 11:22:40 2022, MaxMem=  8589934592 cpu:            1148.5 elap:              47.9
 (Enter /share/apps/g16.b01_avx2/g16/l502.exe)
 Integral symmetry usage will be decided dynamically.
 Closed shell SCF:
 Using DIIS extrapolation, IDIIS=  1040.
 NGot=  8589934592 LenX=  8579741893 LenY=  8574681643
 Requested convergence on RMS density matrix=1.00D-08 within 128 cycles.
 Requested convergence on MAX density matrix=1.00D-06.
 Requested convergence on             energy=1.00D-06.
 No special actions if energy rises.
 Fock matrices will be formed incrementally for  20 cycles.

 Cycle   1  Pass 1  IDiag  1:
 FoFJK:  IHMeth= 1 ICntrl=       0 DoSepK=F KAlg= 0 I1Cent=           0 FoldK=F
 IRaf= 540000000 NMat=       1 IRICut=       1 DoRegI=T DoRafI=F ISym2E= 0 IDoP0=0 IntGTp=1.
 FoFCou: FMM=T IPFlag=           0 FMFlag=      100000 FMFlg1=        2001
         NFxFlg=           0 DoJE=F BraDBF=F KetDBF=F FulRan=T
         wScrn=  0.000000 ICntrl=         0 IOpCl=  0 I1Cent=           0 NGrid=           0
         NMat0=    1 NMatS0=      1 NMatT0=    0 NMatD0=    1 NMtDS0=    0 NMtDT0=    0
 Symmetry not used in FoFCou.
 FMM levels:  10  Number of levels for PrismC:   9
 E= -4794.62804814558    
 DIIS: error= 1.12D-03 at cycle   1 NSaved=   1.
 NSaved= 1 IEnMin= 1 EnMin= -4794.62804814558     IErMin= 1 ErrMin= 1.12D-03
 ErrMax= 1.12D-03  0.00D+00 EMaxC= 1.00D-01 BMatC= 7.29D-03 BMatP= 7.29D-03
 IDIUse=3 WtCom= 9.89D-01 WtEn= 1.12D-02
 Coeff-Com:  0.100D+01
 Coeff-En:   0.100D+01
 Coeff:      0.100D+01
 Gap=     0.431 Goal=   None    Shift=    0.000
 GapD=    0.431 DampG=2.000 DampE=1.000 DampFc=2.0000 IDamp=-1.
 RMSDP=7.14D-04 MaxDP=3.83D-01              OVMax= 1.04D-02

 Cycle   2  Pass 1  IDiag  1:
 RMSU=  7.10D-04    CP:  1.00D+00
