 Entering Gaussian System, Link 0=g16
 Input=input.com
 Output=input.log
 Initial command:
 /share/apps/g16.b01_avx2/g16/l1.exe "/scratch/Gau-58047.inp" -scrdir="/scratch/"
 Entering Link 1 = /share/apps/g16.b01_avx2/g16/l1.exe PID=     58049.
  
 Copyright (c) 1988-2017, Gaussian, Inc.  All Rights Reserved.
  
 This is part of the Gaussian(R) 16 program.  It is based on
 the Gaussian(R) 09 system (copyright 2009, Gaussian, Inc.),
 the Gaussian(R) 03 system (copyright 2003, Gaussian, Inc.),
 the Gaussian(R) 98 system (copyright 1998, Gaussian, Inc.),
 the Gaussian(R) 94 system (copyright 1995, Gaussian, Inc.),
 the Gaussian 92(TM) system (copyright 1992, Gaussian, Inc.),
 the Gaussian 90(TM) system (copyright 1990, Gaussian, Inc.),
 the Gaussian 88(TM) system (copyright 1988, Gaussian, Inc.),
 the Gaussian 86(TM) system (copyright 1986, Carnegie Mellon
 University), and the Gaussian 82(TM) system (copyright 1983,
 Carnegie Mellon University). Gaussian is a federally registered
 trademark of Gaussian, Inc.
  
 This software contains proprietary and confidential information,
 including trade secrets, belonging to Gaussian, Inc.
  
 This software is provided under written license and may be
 used, copied, transmitted, or stored only in accord with that
 written license.
  
 The following legend is applicable only to US Government
 contracts under FAR:
  
                    RESTRICTED RIGHTS LEGEND
  
 Use, reproduction and disclosure by the US Government is
 subject to restrictions as set forth in subparagraphs (a)
 and (c) of the Commercial Computer Software - Restricted
 Rights clause in FAR 52.227-19.
  
 Gaussian, Inc.
 340 Quinnipiac St., Bldg. 40, Wallingford CT 06492
  
  
 ---------------------------------------------------------------
 Warning -- This program may not be used in any manner that
 competes with the business of Gaussian, Inc. or will provide
 assistance to any competitor of Gaussian, Inc.  The licensee
 of this program is prohibited from giving any competitor of
 Gaussian, Inc. access to this program.  By using this program,
 the user acknowledges that Gaussian, Inc. is engaged in the
 business of creating and licensing software in the field of
 computational chemistry and represents and warrants to the
 licensee that it is not a competitor of Gaussian, Inc. and that
 it will not use this program in any manner prohibited above.
 ---------------------------------------------------------------
  

 Cite this work as:
 Gaussian 16, Revision B.01,
 M. J. Frisch, G. W. Trucks, H. B. Schlegel, G. E. Scuseria, 
 M. A. Robb, J. R. Cheeseman, G. Scalmani, V. Barone, 
 G. A. Petersson, H. Nakatsuji, X. Li, M. Caricato, A. V. Marenich, 
 J. Bloino, B. G. Janesko, R. Gomperts, B. Mennucci, H. P. Hratchian, 
 J. V. Ortiz, A. F. Izmaylov, J. L. Sonnenberg, D. Williams-Young, 
 F. Ding, F. Lipparini, F. Egidi, J. Goings, B. Peng, A. Petrone, 
 T. Henderson, D. Ranasinghe, V. G. Zakrzewski, J. Gao, N. Rega, 
 G. Zheng, W. Liang, M. Hada, M. Ehara, K. Toyota, R. Fukuda, 
 J. Hasegawa, M. Ishida, T. Nakajima, Y. Honda, O. Kitao, H. Nakai, 
 T. Vreven, K. Throssell, J. A. Montgomery, Jr., J. E. Peralta, 
 F. Ogliaro, M. J. Bearpark, J. J. Heyd, E. N. Brothers, K. N. Kudin, 
 V. N. Staroverov, T. A. Keith, R. Kobayashi, J. Normand, 
 K. Raghavachari, A. P. Rendell, J. C. Burant, S. S. Iyengar, 
 J. Tomasi, M. Cossi, J. M. Millam, M. Klene, C. Adamo, R. Cammi, 
 J. W. Ochterski, R. L. Martin, K. Morokuma, O. Farkas, 
 J. B. Foresman, and D. J. Fox, Gaussian, Inc., Wallingford CT, 2016.
 
 ******************************************
 Gaussian 16:  ES64L-G16RevB.01 20-Dec-2017
                 7-Feb-2022 
 ******************************************
 %nproc=24
 Will use up to   24 processors via shared memory.
 %mem=64GB
 ----------------------------------------------------------------------
 #P PBE1PBE/6-31+G(d,p) opt=(Maxstep=10) freq int=(grid=99590) scrf=(cp
 cm, solvent=water) EmpiricalDispersion=GD3
 ----------------------------------------------------------------------
 1/8=10,18=20,19=15,26=6,38=1/1,3;
 2/9=110,12=2,17=6,18=5,40=1/2;
 3/5=1,6=6,7=111,11=2,25=1,30=1,70=2101,71=1,72=1,74=-13,75=99590,124=31/1,2,3;
 4//1;
 5/5=2,38=5,53=1/2;
 6/7=2,8=2,9=2,10=2,28=1/1;
 7//1,2,3,16;
 1/8=10,18=20,19=15,26=6/3(2);
 2/9=110/2;
 99//99;
 2/9=110/2;
 3/5=1,6=6,7=111,11=2,25=1,30=1,70=2105,71=1,72=1,74=-13,75=99590,124=31/1,2,3;
 4/5=5,16=3,69=1/1;
 5/5=2,38=5,53=1/2;
 7//1,2,3,16;
 1/8=10,18=20,19=15,26=6/3(-5);
 2/9=110/2;
 6/7=2,8=2,9=2,10=2,19=2,28=1/1;
 99/9=1/99;
 Leave Link    1 at Mon Feb  7 16:12:15 2022, MaxMem=  8589934592 cpu:               0.8 elap:               0.0
 (Enter /share/apps/g16.b01_avx2/g16/l101.exe)
 -------
 solv sp
 -------
 Symbolic Z-matrix:
 Charge =  0 Multiplicity = 1
 C                     5.43945  -0.65348   0.02199 
 N                     4.22388   0.07678  -0.25754 
 H                     4.32599   0.87947  -0.86934 
 C                     3.04909  -0.23364   0.29381 
 O                     2.88808  -1.18805   1.04274 
 C                     1.89866   0.71705  -0.02957 
 N                     0.67338   0.01424   0.2768 
 H                     0.76727  -0.7816    0.89864 
 C                     6.60289   0.27438  -0.32221 
 O                     6.44222   1.24579  -1.05089 
 N                     7.78633  -0.07353   0.18723 
 H                     7.88882  -0.89074   0.7793 
 C                     9.01045   0.63149  -0.11957 
 C                     10.16163  -0.33849   0.15046 
 O                     9.99869  -1.31742   0.87403 
 N                     11.32937  -0.01226  -0.41526 
 H                     11.35786   0.78815  -1.03 
 H                     5.461    -0.8913    1.09176 
 H                     8.99243   0.90105  -1.18186 
 C                    -1.66572  -0.58655   0.08155 
 N                    -2.88088   0.13111  -0.23035 
 H                    -2.77528   0.9202   -0.85898 
 C                    -4.06195  -0.17514   0.31077 
 O                    -4.22722  -1.11484   1.07782 
 C                    -5.21311   0.76129  -0.04919 
 N                    -6.43919   0.05999   0.25589 
 H                    -6.35078  -0.72229   0.89522 
 C                    -7.60873   0.36279  -0.31521 
 O                    -7.75138   1.29255  -1.10038 
 C                    -0.50193   0.33917  -0.26549 
 O                    -0.65356   1.28707  -1.02494 
 H                    -1.65867  -0.80259   1.15607 
 H                    -5.19579   0.9718   -1.12468 
 C                     12.55175  -0.76272  -0.22194 
 H                     12.38431  -1.50064   0.56266 
 H                     12.84193  -1.28074  -1.14115 
 H                     13.36067  -0.09298   0.08057 
 C                    -8.76863  -0.56597   0.0332 
 H                    -8.75853  -0.78334   1.10744 
 H                    -9.90876   0.90678  -0.92589 
 C                    -11.17574  -0.18021   0.28659 
 C                    -12.36007   0.64664  -0.1451 
 H                    -12.0948   1.47738  -0.80247 
 H                    -13.06964  -0.00389  -0.66444 
 H                    -12.85924   1.03677   0.74542 
 O                    -11.29116  -1.10198   1.10611 
 N                    -9.99175   0.13654  -0.27425 
 C                    -8.65015  -1.88055  -0.74581 
 H                    -8.62753  -1.68485  -1.82213 
 H                    -7.74141  -2.42159  -0.46714 
 H                    -9.51346  -2.51068  -0.51917 
 C                    -5.09872   2.07803   0.72519 
 H                    -5.08725   1.88685   1.80237 
 H                    -4.18512   2.61371   0.45289 
 H                    -5.95684   2.71104   0.48746 
 C                    -1.56059  -1.90039  -0.69908 
 H                    -1.53614  -1.70347  -1.77498 
 H                    -0.65649  -2.44889  -0.42074 
 H                    -2.42869  -2.52387  -0.47293 
 C                     2.02976   2.01565   0.77218 
 H                     2.05636   1.8006    1.84454 
 H                     2.94147   2.55354   0.49799 
 H                     1.17114   2.65736   0.56111 
 C                     5.52572  -1.95191  -0.78626 
 H                     5.5364   -1.73375  -1.85828 
 H                     6.43009  -2.51142  -0.53161 
 H                     4.65721  -2.57493  -0.56036 
 C                     9.16197   1.90257   0.72158 
 H                     8.30003   2.55194   0.55108 
 H                     9.21188   1.65211   1.78539 
 H                     10.06799   2.44896   0.44541 
 H                     1.90216   0.95103  -1.10024 
 
 ITRead=  0  0  0  0  0  0  0  0  0  0  0  0  0  0  0  0  0  0  0  0
 ITRead=  0  0  0  0  0  0  0  0  0  0  0  0  0  0  0  0  0  0  0  0
 ITRead=  0  0  0  0  0  0  0  0  0  0  0  0  0  0  0  0  0  0  0  0
 ITRead=  0  0  0  0  0  0  0  0  0  0  0  0
 MicOpt= -1 -1 -1 -1 -1 -1 -1 -1 -1 -1 -1 -1 -1 -1 -1 -1 -1 -1 -1 -1
 MicOpt= -1 -1 -1 -1 -1 -1 -1 -1 -1 -1 -1 -1 -1 -1 -1 -1 -1 -1 -1 -1
 MicOpt= -1 -1 -1 -1 -1 -1 -1 -1 -1 -1 -1 -1 -1 -1 -1 -1 -1 -1 -1 -1
 MicOpt= -1 -1 -1 -1 -1 -1 -1 -1 -1 -1 -1 -1
 NAtoms=     72 NQM=       72 NQMF=       0 NMMI=      0 NMMIF=      0
                NMic=       0 NMicF=      0.
                    Isotopes and Nuclear Properties:
 (Nuclear quadrupole moments (NQMom) in fm**2, nuclear magnetic moments (NMagM)
  in nuclear magnetons)

  Atom         1           2           3           4           5           6           7           8           9          10
 IAtWgt=          12          14           1          12          16          12          14           1          12          16
 AtmWgt=  12.0000000  14.0030740   1.0078250  12.0000000  15.9949146  12.0000000  14.0030740   1.0078250  12.0000000  15.9949146
 NucSpn=           0           2           1           0           0           0           2           1           0           0
 AtZEff=  -0.0000000  -0.0000000  -0.0000000  -0.0000000  -0.0000000  -0.0000000  -0.0000000  -0.0000000  -0.0000000  -0.0000000
 NQMom=    0.0000000   2.0440000   0.0000000   0.0000000   0.0000000   0.0000000   2.0440000   0.0000000   0.0000000   0.0000000
 NMagM=    0.0000000   0.4037610   2.7928460   0.0000000   0.0000000   0.0000000   0.4037610   2.7928460   0.0000000   0.0000000
 AtZNuc=   6.0000000   7.0000000   1.0000000   6.0000000   8.0000000   6.0000000   7.0000000   1.0000000   6.0000000   8.0000000

  Atom        11          12          13          14          15          16          17          18          19          20
 IAtWgt=          14           1          12          12          16          14           1           1           1          12
 AtmWgt=  14.0030740   1.0078250  12.0000000  12.0000000  15.9949146  14.0030740   1.0078250   1.0078250   1.0078250  12.0000000
 NucSpn=           2           1           0           0           0           2           1           1           1           0
 AtZEff=  -0.0000000  -0.0000000  -0.0000000  -0.0000000  -0.0000000  -0.0000000  -0.0000000  -0.0000000  -0.0000000  -0.0000000
 NQMom=    2.0440000   0.0000000   0.0000000   0.0000000   0.0000000   2.0440000   0.0000000   0.0000000   0.0000000   0.0000000
 NMagM=    0.4037610   2.7928460   0.0000000   0.0000000   0.0000000   0.4037610   2.7928460   2.7928460   2.7928460   0.0000000
 AtZNuc=   7.0000000   1.0000000   6.0000000   6.0000000   8.0000000   7.0000000   1.0000000   1.0000000   1.0000000   6.0000000

  Atom        21          22          23          24          25          26          27          28          29          30
 IAtWgt=          14           1          12          16          12          14           1          12          16          12
 AtmWgt=  14.0030740   1.0078250  12.0000000  15.9949146  12.0000000  14.0030740   1.0078250  12.0000000  15.9949146  12.0000000
 NucSpn=           2           1           0           0           0           2           1           0           0           0
 AtZEff=  -0.0000000  -0.0000000  -0.0000000  -0.0000000  -0.0000000  -0.0000000  -0.0000000  -0.0000000  -0.0000000  -0.0000000
 NQMom=    2.0440000   0.0000000   0.0000000   0.0000000   0.0000000   2.0440000   0.0000000   0.0000000   0.0000000   0.0000000
 NMagM=    0.4037610   2.7928460   0.0000000   0.0000000   0.0000000   0.4037610   2.7928460   0.0000000   0.0000000   0.0000000
 AtZNuc=   7.0000000   1.0000000   6.0000000   8.0000000   6.0000000   7.0000000   1.0000000   6.0000000   8.0000000   6.0000000

  Atom        31          32          33          34          35          36          37          38          39          40
 IAtWgt=          16           1           1          12           1           1           1          12           1           1
 AtmWgt=  15.9949146   1.0078250   1.0078250  12.0000000   1.0078250   1.0078250   1.0078250  12.0000000   1.0078250   1.0078250
 NucSpn=           0           1           1           0           1           1           1           0           1           1
 AtZEff=  -0.0000000  -0.0000000  -0.0000000  -0.0000000  -0.0000000  -0.0000000  -0.0000000  -0.0000000  -0.0000000  -0.0000000
 NQMom=    0.0000000   0.0000000   0.0000000   0.0000000   0.0000000   0.0000000   0.0000000   0.0000000   0.0000000   0.0000000
 NMagM=    0.0000000   2.7928460   2.7928460   0.0000000   2.7928460   2.7928460   2.7928460   0.0000000   2.7928460   2.7928460
 AtZNuc=   8.0000000   1.0000000   1.0000000   6.0000000   1.0000000   1.0000000   1.0000000   6.0000000   1.0000000   1.0000000

  Atom        41          42          43          44          45          46          47          48          49          50
 IAtWgt=          12          12           1           1           1          16          14          12           1           1
 AtmWgt=  12.0000000  12.0000000   1.0078250   1.0078250   1.0078250  15.9949146  14.0030740  12.0000000   1.0078250   1.0078250
 NucSpn=           0           0           1           1           1           0           2           0           1           1
 AtZEff=  -0.0000000  -0.0000000  -0.0000000  -0.0000000  -0.0000000  -0.0000000  -0.0000000  -0.0000000  -0.0000000  -0.0000000
 NQMom=    0.0000000   0.0000000   0.0000000   0.0000000   0.0000000   0.0000000   2.0440000   0.0000000   0.0000000   0.0000000
 NMagM=    0.0000000   0.0000000   2.7928460   2.7928460   2.7928460   0.0000000   0.4037610   0.0000000   2.7928460   2.7928460
 AtZNuc=   6.0000000   6.0000000   1.0000000   1.0000000   1.0000000   8.0000000   7.0000000   6.0000000   1.0000000   1.0000000

  Atom        51          52          53          54          55          56          57          58          59          60
 IAtWgt=           1          12           1           1           1          12           1           1           1          12
 AtmWgt=   1.0078250  12.0000000   1.0078250   1.0078250   1.0078250  12.0000000   1.0078250   1.0078250   1.0078250  12.0000000
 NucSpn=           1           0           1           1           1           0           1           1           1           0
 AtZEff=  -0.0000000  -0.0000000  -0.0000000  -0.0000000  -0.0000000  -0.0000000  -0.0000000  -0.0000000  -0.0000000  -0.0000000
 NQMom=    0.0000000   0.0000000   0.0000000   0.0000000   0.0000000   0.0000000   0.0000000   0.0000000   0.0000000   0.0000000
 NMagM=    2.7928460   0.0000000   2.7928460   2.7928460   2.7928460   0.0000000   2.7928460   2.7928460   2.7928460   0.0000000
 AtZNuc=   1.0000000   6.0000000   1.0000000   1.0000000   1.0000000   6.0000000   1.0000000   1.0000000   1.0000000   6.0000000

  Atom        61          62          63          64          65          66          67          68          69          70
 IAtWgt=           1           1           1          12           1           1           1          12           1           1
 AtmWgt=   1.0078250   1.0078250   1.0078250  12.0000000   1.0078250   1.0078250   1.0078250  12.0000000   1.0078250   1.0078250
 NucSpn=           1           1           1           0           1           1           1           0           1           1
 AtZEff=  -0.0000000  -0.0000000  -0.0000000  -0.0000000  -0.0000000  -0.0000000  -0.0000000  -0.0000000  -0.0000000  -0.0000000
 NQMom=    0.0000000   0.0000000   0.0000000   0.0000000   0.0000000   0.0000000   0.0000000   0.0000000   0.0000000   0.0000000
 NMagM=    2.7928460   2.7928460   2.7928460   0.0000000   2.7928460   2.7928460   2.7928460   0.0000000   2.7928460   2.7928460
 AtZNuc=   1.0000000   1.0000000   1.0000000   6.0000000   1.0000000   1.0000000   1.0000000   6.0000000   1.0000000   1.0000000

  Atom        71          72
 IAtWgt=           1           1
 AtmWgt=   1.0078250   1.0078250
 NucSpn=           1           1
 AtZEff=  -0.0000000  -0.0000000
 NQMom=    0.0000000   0.0000000
 NMagM=    2.7928460   2.7928460
 AtZNuc=   1.0000000   1.0000000
 Leave Link  101 at Mon Feb  7 16:12:16 2022, MaxMem=  8589934592 cpu:               7.8 elap:               0.3
 (Enter /share/apps/g16.b01_avx2/g16/l103.exe)

 GradGradGradGradGradGradGradGradGradGradGradGradGradGradGradGradGradGrad
 Berny optimization.
 Initialization pass.
                           ----------------------------
                           !    Initial Parameters    !
                           ! (Angstroms and Degrees)  !
 --------------------------                            --------------------------
 ! Name  Definition              Value          Derivative Info.                !
 --------------------------------------------------------------------------------
 ! R1    R(1,2)                  1.4453         estimate D2E/DX2                !
 ! R2    R(1,9)                  1.5274         estimate D2E/DX2                !
 ! R3    R(1,18)                 1.0961         estimate D2E/DX2                !
 ! R4    R(1,64)                 1.5319         estimate D2E/DX2                !
 ! R5    R(2,3)                  1.0144         estimate D2E/DX2                !
 ! R6    R(2,4)                  1.3343         estimate D2E/DX2                !
 ! R7    R(4,5)                  1.2238         estimate D2E/DX2                !
 ! R8    R(4,6)                  1.527          estimate D2E/DX2                !
 ! R9    R(6,7)                  1.4454         estimate D2E/DX2                !
 ! R10   R(6,60)                 1.5318         estimate D2E/DX2                !
 ! R11   R(6,72)                 1.0959         estimate D2E/DX2                !
 ! R12   R(7,8)                  1.0143         estimate D2E/DX2                !
 ! R13   R(7,30)                 1.3345         estimate D2E/DX2                !
 ! R14   R(9,10)                 1.2249         estimate D2E/DX2                !
 ! R15   R(9,11)                 1.3346         estimate D2E/DX2                !
 ! R16   R(11,12)                1.0143         estimate D2E/DX2                !
 ! R17   R(11,13)                1.4456         estimate D2E/DX2                !
 ! R18   R(13,14)                1.5294         estimate D2E/DX2                !
 ! R19   R(13,19)                1.0961         estimate D2E/DX2                !
 ! R20   R(13,68)                1.5317         estimate D2E/DX2                !
 ! R21   R(14,15)                1.2282         estimate D2E/DX2                !
 ! R22   R(14,16)                1.3379         estimate D2E/DX2                !
 ! R23   R(16,17)                1.0096         estimate D2E/DX2                !
 ! R24   R(16,34)                1.4473         estimate D2E/DX2                !
 ! R25   R(20,21)                1.4453         estimate D2E/DX2                !
 ! R26   R(20,30)                1.527          estimate D2E/DX2                !
 ! R27   R(20,32)                1.0961         estimate D2E/DX2                !
 ! R28   R(20,56)                1.5319         estimate D2E/DX2                !
 ! R29   R(21,22)                1.0144         estimate D2E/DX2                !
 ! R30   R(21,23)                1.3347         estimate D2E/DX2                !
 ! R31   R(23,24)                1.2242         estimate D2E/DX2                !
 ! R32   R(23,25)                1.527          estimate D2E/DX2                !
 ! R33   R(25,26)                1.445          estimate D2E/DX2                !
 ! R34   R(25,33)                1.096          estimate D2E/DX2                !
 ! R35   R(25,52)                1.5318         estimate D2E/DX2                !
 ! R36   R(26,27)                1.0142         estimate D2E/DX2                !
 ! R37   R(26,28)                1.3363         estimate D2E/DX2                !
 ! R38   R(28,29)                1.2253         estimate D2E/DX2                !
 ! R39   R(28,38)                1.5262         estimate D2E/DX2                !
 ! R40   R(30,31)                1.224          estimate D2E/DX2                !
 ! R41   R(34,35)                1.09           estimate D2E/DX2                !
 ! R42   R(34,36)                1.0943         estimate D2E/DX2                !
 ! R43   R(34,37)                1.0929         estimate D2E/DX2                !
 ! R44   R(38,39)                1.0961         estimate D2E/DX2                !
 ! R45   R(38,47)                1.4436         estimate D2E/DX2                !
 ! R46   R(38,48)                1.5326         estimate D2E/DX2                !
 ! R47   R(40,47)                1.0123         estimate D2E/DX2                !
 ! R48   R(41,42)                1.5075         estimate D2E/DX2                !
 ! R49   R(41,46)                1.2388         estimate D2E/DX2                !
 ! R50   R(41,47)                1.3478         estimate D2E/DX2                !
 ! R51   R(42,43)                1.0921         estimate D2E/DX2                !
 ! R52   R(42,44)                1.0938         estimate D2E/DX2                !
 ! R53   R(42,45)                1.0929         estimate D2E/DX2                !
 ! R54   R(48,49)                1.0942         estimate D2E/DX2                !
 ! R55   R(48,50)                1.0937         estimate D2E/DX2                !
 ! R56   R(48,51)                1.0926         estimate D2E/DX2                !
 ! R57   R(52,53)                1.0941         estimate D2E/DX2                !
 ! R58   R(52,54)                1.0935         estimate D2E/DX2                !
 ! R59   R(52,55)                1.0925         estimate D2E/DX2                !
 ! R60   R(56,57)                1.094          estimate D2E/DX2                !
 ! R61   R(56,58)                1.0935         estimate D2E/DX2                !
 ! R62   R(56,59)                1.0925         estimate D2E/DX2                !
 ! R63   R(60,61)                1.094          estimate D2E/DX2                !
 ! R64   R(60,62)                1.0935         estimate D2E/DX2                !
 ! R65   R(60,63)                1.0925         estimate D2E/DX2                !
 ! R66   R(64,65)                1.094          estimate D2E/DX2                !
 ! R67   R(64,66)                1.0935         estimate D2E/DX2                !
 ! R68   R(64,67)                1.0925         estimate D2E/DX2                !
 ! R69   R(68,69)                1.0926         estimate D2E/DX2                !
 ! R70   R(68,70)                1.094          estimate D2E/DX2                !
 ! R71   R(68,71)                1.0935         estimate D2E/DX2                !
 ! A1    A(2,1,9)              106.8645         estimate D2E/DX2                !
 ! A2    A(2,1,18)             108.3551         estimate D2E/DX2                !
 ! A3    A(2,1,64)             111.9366         estimate D2E/DX2                !
 ! A4    A(9,1,18)             109.6792         estimate D2E/DX2                !
 ! A5    A(9,1,64)             110.6774         estimate D2E/DX2                !
 ! A6    A(18,1,64)            109.2653         estimate D2E/DX2                !
 ! A7    A(1,2,3)              115.5799         estimate D2E/DX2                !
 ! A8    A(1,2,4)              122.8887         estimate D2E/DX2                !
 ! A9    A(3,2,4)              121.4607         estimate D2E/DX2                !
 ! A10   A(2,4,5)              123.3755         estimate D2E/DX2                !
 ! A11   A(2,4,6)              115.5279         estimate D2E/DX2                !
 ! A12   A(5,4,6)              121.0639         estimate D2E/DX2                !
 ! A13   A(4,6,7)              106.9201         estimate D2E/DX2                !
 ! A14   A(4,6,60)             110.6392         estimate D2E/DX2                !
 ! A15   A(4,6,72)             109.718          estimate D2E/DX2                !
 ! A16   A(7,6,60)             111.9526         estimate D2E/DX2                !
 ! A17   A(7,6,72)             108.2759         estimate D2E/DX2                !
 ! A18   A(60,6,72)            109.2729         estimate D2E/DX2                !
 ! A19   A(6,7,8)              115.6569         estimate D2E/DX2                !
 ! A20   A(6,7,30)             122.8234         estimate D2E/DX2                !
 ! A21   A(8,7,30)             121.4445         estimate D2E/DX2                !
 ! A22   A(1,9,10)             121.0566         estimate D2E/DX2                !
 ! A23   A(1,9,11)             115.535          estimate D2E/DX2                !
 ! A24   A(10,9,11)            123.3764         estimate D2E/DX2                !
 ! A25   A(9,11,12)            121.4958         estimate D2E/DX2                !
 ! A26   A(9,11,13)            122.871          estimate D2E/DX2                !
 ! A27   A(12,11,13)           115.5473         estimate D2E/DX2                !
 ! A28   A(11,13,14)           106.8944         estimate D2E/DX2                !
 ! A29   A(11,13,19)           108.1624         estimate D2E/DX2                !
 ! A30   A(11,13,68)           111.8357         estimate D2E/DX2                !
 ! A31   A(14,13,19)           109.8443         estimate D2E/DX2                !
 ! A32   A(14,13,68)           110.7867         estimate D2E/DX2                !
 ! A33   A(19,13,68)           109.254          estimate D2E/DX2                !
 ! A34   A(13,14,15)           120.6424         estimate D2E/DX2                !
 ! A35   A(13,14,16)           115.319          estimate D2E/DX2                !
 ! A36   A(15,14,16)           124.004          estimate D2E/DX2                !
 ! A37   A(14,16,17)           118.3841         estimate D2E/DX2                !
 ! A38   A(14,16,34)           123.6575         estimate D2E/DX2                !
 ! A39   A(17,16,34)           117.9404         estimate D2E/DX2                !
 ! A40   A(21,20,30)           106.9002         estimate D2E/DX2                !
 ! A41   A(21,20,32)           108.3505         estimate D2E/DX2                !
 ! A42   A(21,20,56)           111.9381         estimate D2E/DX2                !
 ! A43   A(30,20,32)           109.718          estimate D2E/DX2                !
 ! A44   A(30,20,56)           110.5992         estimate D2E/DX2                !
 ! A45   A(32,20,56)           109.2748         estimate D2E/DX2                !
 ! A46   A(20,21,22)           115.6245         estimate D2E/DX2                !
 ! A47   A(20,21,23)           122.8573         estimate D2E/DX2                !
 ! A48   A(22,21,23)           121.4552         estimate D2E/DX2                !
 ! A49   A(21,23,24)           123.339          estimate D2E/DX2                !
 ! A50   A(21,23,25)           115.519          estimate D2E/DX2                !
 ! A51   A(24,23,25)           121.1085         estimate D2E/DX2                !
 ! A52   A(23,25,26)           106.993          estimate D2E/DX2                !
 ! A53   A(23,25,33)           109.7059         estimate D2E/DX2                !
 ! A54   A(23,25,52)           110.5903         estimate D2E/DX2                !
 ! A55   A(26,25,33)           108.2872         estimate D2E/DX2                !
 ! A56   A(26,25,52)           111.9497         estimate D2E/DX2                !
 ! A57   A(33,25,52)           109.2547         estimate D2E/DX2                !
 ! A58   A(25,26,27)           115.6885         estimate D2E/DX2                !
 ! A59   A(25,26,28)           122.847          estimate D2E/DX2                !
 ! A60   A(27,26,28)           121.3657         estimate D2E/DX2                !
 ! A61   A(26,28,29)           123.21           estimate D2E/DX2                !
 ! A62   A(26,28,38)           115.4482         estimate D2E/DX2                !
 ! A63   A(29,28,38)           121.3036         estimate D2E/DX2                !
 ! A64   A(7,30,20)            115.5463         estimate D2E/DX2                !
 ! A65   A(7,30,31)            123.3511         estimate D2E/DX2                !
 ! A66   A(20,30,31)           121.0681         estimate D2E/DX2                !
 ! A67   A(16,34,35)           108.5074         estimate D2E/DX2                !
 ! A68   A(16,34,36)           110.9291         estimate D2E/DX2                !
 ! A69   A(16,34,37)           110.1416         estimate D2E/DX2                !
 ! A70   A(35,34,36)           108.9592         estimate D2E/DX2                !
 ! A71   A(35,34,37)           109.2279         estimate D2E/DX2                !
 ! A72   A(36,34,37)           109.046          estimate D2E/DX2                !
 ! A73   A(28,38,39)           109.72           estimate D2E/DX2                !
 ! A74   A(28,38,47)           107.4062         estimate D2E/DX2                !
 ! A75   A(28,38,48)           110.3145         estimate D2E/DX2                !
 ! A76   A(39,38,47)           108.2426         estimate D2E/DX2                !
 ! A77   A(39,38,48)           109.1078         estimate D2E/DX2                !
 ! A78   A(47,38,48)           112.0019         estimate D2E/DX2                !
 ! A79   A(42,41,46)           121.6249         estimate D2E/DX2                !
 ! A80   A(42,41,47)           116.235          estimate D2E/DX2                !
 ! A81   A(46,41,47)           122.1392         estimate D2E/DX2                !
 ! A82   A(41,42,43)           113.5011         estimate D2E/DX2                !
 ! A83   A(41,42,44)           108.6268         estimate D2E/DX2                !
 ! A84   A(41,42,45)           108.7409         estimate D2E/DX2                !
 ! A85   A(43,42,44)           108.9163         estimate D2E/DX2                !
 ! A86   A(43,42,45)           109.2613         estimate D2E/DX2                !
 ! A87   A(44,42,45)           107.6314         estimate D2E/DX2                !
 ! A88   A(38,47,40)           115.9697         estimate D2E/DX2                !
 ! A89   A(38,47,41)           122.7703         estimate D2E/DX2                !
 ! A90   A(40,47,41)           121.2427         estimate D2E/DX2                !
 ! A91   A(38,48,49)           110.375          estimate D2E/DX2                !
 ! A92   A(38,48,50)           111.04           estimate D2E/DX2                !
 ! A93   A(38,48,51)           109.1573         estimate D2E/DX2                !
 ! A94   A(49,48,50)           108.7796         estimate D2E/DX2                !
 ! A95   A(49,48,51)           108.8769         estimate D2E/DX2                !
 ! A96   A(50,48,51)           108.5644         estimate D2E/DX2                !
 ! A97   A(25,52,53)           110.3828         estimate D2E/DX2                !
 ! A98   A(25,52,54)           110.9519         estimate D2E/DX2                !
 ! A99   A(25,52,55)           109.2318         estimate D2E/DX2                !
 ! A100  A(53,52,54)           108.7849         estimate D2E/DX2                !
 ! A101  A(53,52,55)           108.888          estimate D2E/DX2                !
 ! A102  A(54,52,55)           108.5548         estimate D2E/DX2                !
 ! A103  A(20,56,57)           110.3835         estimate D2E/DX2                !
 ! A104  A(20,56,58)           110.9311         estimate D2E/DX2                !
 ! A105  A(20,56,59)           109.2361         estimate D2E/DX2                !
 ! A106  A(57,56,58)           108.7919         estimate D2E/DX2                !
 ! A107  A(57,56,59)           108.9082         estimate D2E/DX2                !
 ! A108  A(58,56,59)           108.5439         estimate D2E/DX2                !
 ! A109  A(6,60,61)            110.394          estimate D2E/DX2                !
 ! A110  A(6,60,62)            110.9245         estimate D2E/DX2                !
 ! A111  A(6,60,63)            109.2434         estimate D2E/DX2                !
 ! A112  A(61,60,62)           108.7959         estimate D2E/DX2                !
 ! A113  A(61,60,63)           108.9011         estimate D2E/DX2                !
 ! A114  A(62,60,63)           108.5354         estimate D2E/DX2                !
 ! A115  A(1,64,65)            110.3973         estimate D2E/DX2                !
 ! A116  A(1,64,66)            110.9402         estimate D2E/DX2                !
 ! A117  A(1,64,67)            109.2387         estimate D2E/DX2                !
 ! A118  A(65,64,66)           108.7925         estimate D2E/DX2                !
 ! A119  A(65,64,67)           108.9113         estimate D2E/DX2                !
 ! A120  A(66,64,67)           108.5139         estimate D2E/DX2                !
 ! A121  A(13,68,69)           109.2375         estimate D2E/DX2                !
 ! A122  A(13,68,70)           110.3966         estimate D2E/DX2                !
 ! A123  A(13,68,71)           110.9731         estimate D2E/DX2                !
 ! A124  A(69,68,70)           108.8926         estimate D2E/DX2                !
 ! A125  A(69,68,71)           108.4984         estimate D2E/DX2                !
 ! A126  A(70,68,71)           108.7946         estimate D2E/DX2                !
 ! D1    D(9,1,2,3)             18.5125         estimate D2E/DX2                !
 ! D2    D(9,1,2,4)           -158.4669         estimate D2E/DX2                !
 ! D3    D(18,1,2,3)           136.6331         estimate D2E/DX2                !
 ! D4    D(18,1,2,4)           -40.3463         estimate D2E/DX2                !
 ! D5    D(64,1,2,3)          -102.8105         estimate D2E/DX2                !
 ! D6    D(64,1,2,4)            80.21           estimate D2E/DX2                !
 ! D7    D(2,1,9,10)           -18.8794         estimate D2E/DX2                !
 ! D8    D(2,1,9,11)           163.1086         estimate D2E/DX2                !
 ! D9    D(18,1,9,10)         -136.1302         estimate D2E/DX2                !
 ! D10   D(18,1,9,11)           45.8577         estimate D2E/DX2                !
 ! D11   D(64,1,9,10)          103.2382         estimate D2E/DX2                !
 ! D12   D(64,1,9,11)          -74.7739         estimate D2E/DX2                !
 ! D13   D(2,1,64,65)           61.6959         estimate D2E/DX2                !
 ! D14   D(2,1,64,66)         -177.621          estimate D2E/DX2                !
 ! D15   D(2,1,64,67)          -58.0404         estimate D2E/DX2                !
 ! D16   D(9,1,64,65)          -57.4009         estimate D2E/DX2                !
 ! D17   D(9,1,64,66)           63.2821         estimate D2E/DX2                !
 ! D18   D(9,1,64,67)         -177.1372         estimate D2E/DX2                !
 ! D19   D(18,1,64,65)        -178.2785         estimate D2E/DX2                !
 ! D20   D(18,1,64,66)         -57.5954         estimate D2E/DX2                !
 ! D21   D(18,1,64,67)          61.9852         estimate D2E/DX2                !
 ! D22   D(1,2,4,5)             -2.7293         estimate D2E/DX2                !
 ! D23   D(1,2,4,6)            175.2054         estimate D2E/DX2                !
 ! D24   D(3,2,4,5)           -179.5351         estimate D2E/DX2                !
 ! D25   D(3,2,4,6)             -1.6004         estimate D2E/DX2                !
 ! D26   D(2,4,6,7)            162.1239         estimate D2E/DX2                !
 ! D27   D(2,4,6,60)           -75.7263         estimate D2E/DX2                !
 ! D28   D(2,4,6,72)            44.9156         estimate D2E/DX2                !
 ! D29   D(5,4,6,7)            -19.8895         estimate D2E/DX2                !
 ! D30   D(5,4,6,60)           102.2602         estimate D2E/DX2                !
 ! D31   D(5,4,6,72)          -137.0979         estimate D2E/DX2                !
 ! D32   D(4,6,7,8)             19.2751         estimate D2E/DX2                !
 ! D33   D(4,6,7,30)          -157.6087         estimate D2E/DX2                !
 ! D34   D(60,6,7,8)          -102.0468         estimate D2E/DX2                !
 ! D35   D(60,6,7,30)           81.0693         estimate D2E/DX2                !
 ! D36   D(72,6,7,8)           137.4299         estimate D2E/DX2                !
 ! D37   D(72,6,7,30)          -39.4539         estimate D2E/DX2                !
 ! D38   D(4,6,60,61)          -57.5155         estimate D2E/DX2                !
 ! D39   D(4,6,60,62)           63.1592         estimate D2E/DX2                !
 ! D40   D(4,6,60,63)         -177.2402         estimate D2E/DX2                !
 ! D41   D(7,6,60,61)           61.6363         estimate D2E/DX2                !
 ! D42   D(7,6,60,62)         -177.6889         estimate D2E/DX2                !
 ! D43   D(7,6,60,63)          -58.0884         estimate D2E/DX2                !
 ! D44   D(72,6,60,61)        -178.422          estimate D2E/DX2                !
 ! D45   D(72,6,60,62)         -57.7472         estimate D2E/DX2                !
 ! D46   D(72,6,60,63)          61.8533         estimate D2E/DX2                !
 ! D47   D(6,7,30,20)          174.9675         estimate D2E/DX2                !
 ! D48   D(6,7,30,31)           -2.9106         estimate D2E/DX2                !
 ! D49   D(8,7,30,20)           -1.7399         estimate D2E/DX2                !
 ! D50   D(8,7,30,31)         -179.6179         estimate D2E/DX2                !
 ! D51   D(1,9,11,12)           -1.3106         estimate D2E/DX2                !
 ! D52   D(1,9,11,13)          175.1691         estimate D2E/DX2                !
 ! D53   D(10,9,11,12)        -179.2712         estimate D2E/DX2                !
 ! D54   D(10,9,11,13)          -2.7916         estimate D2E/DX2                !
 ! D55   D(9,11,13,14)        -157.5014         estimate D2E/DX2                !
 ! D56   D(9,11,13,19)         -39.2711         estimate D2E/DX2                !
 ! D57   D(9,11,13,68)          81.0816         estimate D2E/DX2                !
 ! D58   D(12,11,13,14)         19.1719         estimate D2E/DX2                !
 ! D59   D(12,11,13,19)        137.4022         estimate D2E/DX2                !
 ! D60   D(12,11,13,68)       -102.2451         estimate D2E/DX2                !
 ! D61   D(11,13,14,15)        -19.8657         estimate D2E/DX2                !
 ! D62   D(11,13,14,16)        162.1876         estimate D2E/DX2                !
 ! D63   D(19,13,14,15)       -136.9917         estimate D2E/DX2                !
 ! D64   D(19,13,14,16)         45.0617         estimate D2E/DX2                !
 ! D65   D(68,13,14,15)        102.2126         estimate D2E/DX2                !
 ! D66   D(68,13,14,16)        -75.734          estimate D2E/DX2                !
 ! D67   D(11,13,68,69)        -57.7538         estimate D2E/DX2                !
 ! D68   D(11,13,68,70)         61.9582         estimate D2E/DX2                !
 ! D69   D(11,13,68,71)       -177.3349         estimate D2E/DX2                !
 ! D70   D(14,13,68,69)       -176.8955         estimate D2E/DX2                !
 ! D71   D(14,13,68,70)        -57.1834         estimate D2E/DX2                !
 ! D72   D(14,13,68,71)         63.5234         estimate D2E/DX2                !
 ! D73   D(19,13,68,69)         61.9595         estimate D2E/DX2                !
 ! D74   D(19,13,68,70)       -178.3284         estimate D2E/DX2                !
 ! D75   D(19,13,68,71)        -57.6216         estimate D2E/DX2                !
 ! D76   D(13,14,16,17)         -4.9014         estimate D2E/DX2                !
 ! D77   D(13,14,16,34)        176.6739         estimate D2E/DX2                !
 ! D78   D(15,14,16,17)        177.2297         estimate D2E/DX2                !
 ! D79   D(15,14,16,34)         -1.195          estimate D2E/DX2                !
 ! D80   D(14,16,34,35)         -9.0841         estimate D2E/DX2                !
 ! D81   D(14,16,34,36)        110.5748         estimate D2E/DX2                !
 ! D82   D(14,16,34,37)       -128.6011         estimate D2E/DX2                !
 ! D83   D(17,16,34,35)        172.4847         estimate D2E/DX2                !
 ! D84   D(17,16,34,36)        -67.8564         estimate D2E/DX2                !
 ! D85   D(17,16,34,37)         52.9677         estimate D2E/DX2                !
 ! D86   D(30,20,21,22)         18.6357         estimate D2E/DX2                !
 ! D87   D(30,20,21,23)       -158.5147         estimate D2E/DX2                !
 ! D88   D(32,20,21,22)        136.8188         estimate D2E/DX2                !
 ! D89   D(32,20,21,23)        -40.3316         estimate D2E/DX2                !
 ! D90   D(56,20,21,22)       -102.6152         estimate D2E/DX2                !
 ! D91   D(56,20,21,23)         80.2345         estimate D2E/DX2                !
 ! D92   D(21,20,30,7)         162.5766         estimate D2E/DX2                !
 ! D93   D(21,20,30,31)        -19.4927         estimate D2E/DX2                !
 ! D94   D(32,20,30,7)          45.2908         estimate D2E/DX2                !
 ! D95   D(32,20,30,31)       -136.7785         estimate D2E/DX2                !
 ! D96   D(56,20,30,7)         -75.3278         estimate D2E/DX2                !
 ! D97   D(56,20,30,31)        102.6029         estimate D2E/DX2                !
 ! D98   D(21,20,56,57)         61.6469         estimate D2E/DX2                !
 ! D99   D(21,20,56,58)       -177.686          estimate D2E/DX2                !
 ! D100  D(21,20,56,59)        -58.0756         estimate D2E/DX2                !
 ! D101  D(30,20,56,57)        -57.4436         estimate D2E/DX2                !
 ! D102  D(30,20,56,58)         63.2235         estimate D2E/DX2                !
 ! D103  D(30,20,56,59)       -177.166          estimate D2E/DX2                !
 ! D104  D(32,20,56,57)       -178.326          estimate D2E/DX2                !
 ! D105  D(32,20,56,58)        -57.6589         estimate D2E/DX2                !
 ! D106  D(32,20,56,59)         61.9516         estimate D2E/DX2                !
 ! D107  D(20,21,23,24)         -2.6567         estimate D2E/DX2                !
 ! D108  D(20,21,23,25)        175.2593         estimate D2E/DX2                !
 ! D109  D(22,21,23,24)       -179.6445         estimate D2E/DX2                !
 ! D110  D(22,21,23,25)         -1.7286         estimate D2E/DX2                !
 ! D111  D(21,23,25,26)        162.2208         estimate D2E/DX2                !
 ! D112  D(21,23,25,33)         44.9646         estimate D2E/DX2                !
 ! D113  D(21,23,25,52)        -75.6156         estimate D2E/DX2                !
 ! D114  D(24,23,25,26)        -19.8126         estimate D2E/DX2                !
 ! D115  D(24,23,25,33)       -137.0689         estimate D2E/DX2                !
 ! D116  D(24,23,25,52)        102.3509         estimate D2E/DX2                !
 ! D117  D(23,25,26,27)         19.1649         estimate D2E/DX2                !
 ! D118  D(23,25,26,28)       -157.262          estimate D2E/DX2                !
 ! D119  D(33,25,26,27)        137.3507         estimate D2E/DX2                !
 ! D120  D(33,25,26,28)        -39.0763         estimate D2E/DX2                !
 ! D121  D(52,25,26,27)       -102.143          estimate D2E/DX2                !
 ! D122  D(52,25,26,28)         81.4301         estimate D2E/DX2                !
 ! D123  D(23,25,52,53)        -57.6419         estimate D2E/DX2                !
 ! D124  D(23,25,52,54)         63.0296         estimate D2E/DX2                !
 ! D125  D(23,25,52,55)       -177.3363         estimate D2E/DX2                !
 ! D126  D(26,25,52,53)         61.5674         estimate D2E/DX2                !
 ! D127  D(26,25,52,54)       -177.7611         estimate D2E/DX2                !
 ! D128  D(26,25,52,55)        -58.127          estimate D2E/DX2                !
 ! D129  D(33,25,52,53)       -178.4907         estimate D2E/DX2                !
 ! D130  D(33,25,52,54)        -57.8192         estimate D2E/DX2                !
 ! D131  D(33,25,52,55)         61.8149         estimate D2E/DX2                !
 ! D132  D(25,26,28,29)         -3.1447         estimate D2E/DX2                !
 ! D133  D(25,26,28,38)        174.6308         estimate D2E/DX2                !
 ! D134  D(27,26,28,29)       -179.3735         estimate D2E/DX2                !
 ! D135  D(27,26,28,38)         -1.5979         estimate D2E/DX2                !
 ! D136  D(26,28,38,39)         43.4729         estimate D2E/DX2                !
 ! D137  D(26,28,38,47)        160.9165         estimate D2E/DX2                !
 ! D138  D(26,28,38,48)        -76.759          estimate D2E/DX2                !
 ! D139  D(29,28,38,39)       -138.7053         estimate D2E/DX2                !
 ! D140  D(29,28,38,47)        -21.2617         estimate D2E/DX2                !
 ! D141  D(29,28,38,48)        101.0628         estimate D2E/DX2                !
 ! D142  D(28,38,47,40)         20.5525         estimate D2E/DX2                !
 ! D143  D(28,38,47,41)       -157.9519         estimate D2E/DX2                !
 ! D144  D(39,38,47,40)        138.9551         estimate D2E/DX2                !
 ! D145  D(39,38,47,41)        -39.5494         estimate D2E/DX2                !
 ! D146  D(48,38,47,40)       -100.7184         estimate D2E/DX2                !
 ! D147  D(48,38,47,41)         80.7771         estimate D2E/DX2                !
 ! D148  D(28,38,48,49)        -57.6833         estimate D2E/DX2                !
 ! D149  D(28,38,48,50)         63.0345         estimate D2E/DX2                !
 ! D150  D(28,38,48,51)       -177.3127         estimate D2E/DX2                !
 ! D151  D(39,38,48,49)       -178.2827         estimate D2E/DX2                !
 ! D152  D(39,38,48,50)        -57.5649         estimate D2E/DX2                !
 ! D153  D(39,38,48,51)         62.0879         estimate D2E/DX2                !
 ! D154  D(47,38,48,49)         61.8958         estimate D2E/DX2                !
 ! D155  D(47,38,48,50)       -177.3863         estimate D2E/DX2                !
 ! D156  D(47,38,48,51)        -57.7335         estimate D2E/DX2                !
 ! D157  D(46,41,42,43)        174.9023         estimate D2E/DX2                !
 ! D158  D(46,41,42,44)        -63.7913         estimate D2E/DX2                !
 ! D159  D(46,41,42,45)         53.0735         estimate D2E/DX2                !
 ! D160  D(47,41,42,43)         -5.4379         estimate D2E/DX2                !
 ! D161  D(47,41,42,44)        115.8685         estimate D2E/DX2                !
 ! D162  D(47,41,42,45)       -127.2667         estimate D2E/DX2                !
 ! D163  D(42,41,47,38)       -179.7559         estimate D2E/DX2                !
 ! D164  D(42,41,47,40)          1.8168         estimate D2E/DX2                !
 ! D165  D(46,41,47,38)         -0.098          estimate D2E/DX2                !
 ! D166  D(46,41,47,40)       -178.5254         estimate D2E/DX2                !
 --------------------------------------------------------------------------------
 Trust Radius=1.00D-01 FncErr=5.00D-06 GrdErr=5.00D-06 EigMax=2.50D+02 EigMin=1.00D-04
 Number of steps in this run=    373 maximum allowed number of steps=    432.
 GradGradGradGradGradGradGradGradGradGradGradGradGradGradGradGradGradGrad

 Leave Link  103 at Mon Feb  7 16:12:16 2022, MaxMem=  8589934592 cpu:               0.5 elap:               0.0
 (Enter /share/apps/g16.b01_avx2/g16/l202.exe)
 Stoichiometry    C21H37N7O7
 Framework group  C1[X(C21H37N7O7)]
 Deg. of freedom   210
 Full point group                 C1      NOp   1
 Largest Abelian subgroup         C1      NOp   1
 Largest concise Abelian subgroup C1      NOp   1
                         Standard orientation:                         
 ---------------------------------------------------------------------
 Center     Atomic      Atomic             Coordinates (Angstroms)
 Number     Number       Type             X           Y           Z
 ---------------------------------------------------------------------
      1          6           0        5.439445   -0.653483    0.021986
      2          7           0        4.223876    0.076776   -0.257536
      3          1           0        4.325994    0.879467   -0.869342
      4          6           0        3.049091   -0.233640    0.293810
      5          8           0        2.888076   -1.188052    1.042741
      6          6           0        1.898663    0.717053   -0.029565
      7          7           0        0.673376    0.014235    0.276801
      8          1           0        0.767270   -0.781595    0.898637
      9          6           0        6.602892    0.274382   -0.322209
     10          8           0        6.442215    1.245789   -1.050895
     11          7           0        7.786334   -0.073534    0.187231
     12          1           0        7.888819   -0.890736    0.779299
     13          6           0        9.010445    0.631486   -0.119571
     14          6           0       10.161631   -0.338492    0.150464
     15          8           0        9.998687   -1.317424    0.874032
     16          7           0       11.329366   -0.012262   -0.415259
     17          1           0       11.357858    0.788150   -1.029997
     18          1           0        5.460996   -0.891295    1.091760
     19          1           0        8.992426    0.901047   -1.181856
     20          6           0       -1.665715   -0.586554    0.081547
     21          7           0       -2.880878    0.131108   -0.230347
     22          1           0       -2.775284    0.920201   -0.858978
     23          6           0       -4.061954   -0.175142    0.310770
     24          8           0       -4.227223   -1.114835    1.077823
     25          6           0       -5.213108    0.761289   -0.049188
     26          7           0       -6.439185    0.059993    0.255894
     27          1           0       -6.350779   -0.722287    0.895223
     28          6           0       -7.608730    0.362787   -0.315206
     29          8           0       -7.751384    1.292545   -1.100382
     30          6           0       -0.501929    0.339168   -0.265489
     31          8           0       -0.653562    1.287066   -1.024943
     32          1           0       -1.658673   -0.802586    1.156074
     33          1           0       -5.195794    0.971800   -1.124680
     34          6           0       12.551749   -0.762721   -0.221935
     35          1           0       12.384308   -1.500641    0.562663
     36          1           0       12.841931   -1.280742   -1.141146
     37          1           0       13.360665   -0.092978    0.080567
     38          6           0       -8.768628   -0.565973    0.033204
     39          1           0       -8.758534   -0.783342    1.107439
     40          1           0       -9.908761    0.906779   -0.925892
     41          6           0      -11.175736   -0.180208    0.286591
     42          6           0      -12.360067    0.646636   -0.145098
     43          1           0      -12.094798    1.477380   -0.802470
     44          1           0      -13.069637   -0.003893   -0.664443
     45          1           0      -12.859242    1.036768    0.745415
     46          8           0      -11.291157   -1.101985    1.106107
     47          7           0       -9.991747    0.136544   -0.274245
     48          6           0       -8.650152   -1.880551   -0.745809
     49          1           0       -8.627526   -1.684845   -1.822133
     50          1           0       -7.741408   -2.421591   -0.467136
     51          1           0       -9.513456   -2.510681   -0.519172
     52          6           0       -5.098721    2.078031    0.725191
     53          1           0       -5.087251    1.886849    1.802368
     54          1           0       -4.185124    2.613706    0.452888
     55          1           0       -5.956842    2.711036    0.487463
     56          6           0       -1.560585   -1.900385   -0.699078
     57          1           0       -1.536139   -1.703465   -1.774979
     58          1           0       -0.656492   -2.448886   -0.420739
     59          1           0       -2.428689   -2.523871   -0.472930
     60          6           0        2.029760    2.015648    0.772176
     61          1           0        2.056364    1.800595    1.844538
     62          1           0        2.941470    2.553541    0.497986
     63          1           0        1.171140    2.657362    0.561112
     64          6           0        5.525716   -1.951912   -0.786262
     65          1           0        5.536398   -1.733750   -1.858276
     66          1           0        6.430086   -2.511420   -0.531608
     67          1           0        4.657206   -2.574934   -0.560355
     68          6           0        9.161967    1.902572    0.721575
     69          1           0        8.300028    2.551936    0.551084
     70          1           0        9.211878    1.652110    1.785390
     71          1           0       10.067987    2.448959    0.445408
     72          1           0        1.902163    0.951032   -1.100236
 ---------------------------------------------------------------------
 Rotational constants (GHZ):           0.6135785           0.0190997           0.0188197
 Leave Link  202 at Mon Feb  7 16:12:16 2022, MaxMem=  8589934592 cpu:               0.3 elap:               0.0
 (Enter /share/apps/g16.b01_avx2/g16/l301.exe)
 Standard basis: 6-31+G(d,p) (6D, 7F)
 Ernie: Thresh=  0.10000D-02 Tol=  0.10000D-05 Strict=F.
 There are   850 symmetry adapted cartesian basis functions of A   symmetry.
 There are   850 symmetry adapted basis functions of A   symmetry.
   850 basis functions,  1379 primitive gaussians,   850 cartesian basis functions
   134 alpha electrons      134 beta electrons
       nuclear repulsion energy      3499.6528012587 Hartrees.
 IExCor= 1009 DFT=T Ex+Corr=PBE1PBE ExCW=0 ScaHFX=  0.250000
 ScaDFX=  0.750000  0.750000  1.000000  1.000000 ScalE2=  1.000000  1.000000
 IRadAn=  99590 IRanWt=     -1 IRanGd=            0 ICorTp=0 IEmpDi=131
 NAtoms=   72 NActive=   72 NUniq=   72 SFac= 1.00D+00 NAtFMM=   60 NAOKFM=T Big=T
 Integral buffers will be    131072 words long.
 Raffenetti 2 integral format.
 Two-electron integral symmetry is turned on.
 R6Disp:  Grimme-D3 Dispersion energy=       -0.0479865450 Hartrees.
 Nuclear repulsion after empirical dispersion term =     3499.6048147137 Hartrees.
 ------------------------------------------------------------------------------
 Polarizable Continuum Model (PCM)
 =================================
 Model                : C-PCM.
 Atomic radii         : UFF (Universal Force Field).
 Polarization charges : Total charges.
 Charge compensation  : None.
 Solution method      : On-the-fly selection.
 Cavity type          : Scaled VdW (van der Waals Surface) (Alpha=1.100).
 Cavity algorithm     : GePol (No added spheres)
                        Default sphere list used, NSphG=   72.
                        Lebedev-Laikov grids with approx.  5.0 points / Ang**2.
                        Smoothing algorithm: York/Karplus (Gamma=1.0000).
                        Polarization charges: spherical gaussians, with
                                              point-specific exponents (IZeta= 3).
                        Self-potential: point-specific (ISelfS= 7).
                        Self-field    : sphere-specific E.n sum rule (ISelfD= 2).
 1st derivatives      : Analytical E(r).r(x)/FMM algorithm (CHGder, D1EAlg=3).
                        Cavity 1st derivative terms included.
 Solvent              : Water, Eps=  78.355300 Eps(inf)=   1.777849
 ------------------------------------------------------------------------------
 GePol: Number of generator spheres                  =      72
 GePol: Total number of spheres                      =      72
 GePol: Number of exposed spheres                    =      72 (100.00%)
 GePol: Number of points                             =    4993
 GePol: Average weight of points                     =       0.13
 GePol: Minimum weight of points                     =   0.13D-11
 GePol: Maximum weight of points                     =    0.20577
 GePol: Number of points with low weight             =     365
 GePol: Fraction of low-weight points (<1% of avg)   =       7.31%
 GePol: Cavity surface area                          =    658.665 Ang**2
 GePol: Cavity volume                                =    709.401 Ang**3
 Leave Link  301 at Mon Feb  7 16:12:17 2022, MaxMem=  8589934592 cpu:               1.7 elap:               0.1
 (Enter /share/apps/g16.b01_avx2/g16/l302.exe)
 NPDir=0 NMtPBC=     1 NCelOv=     1 NCel=       1 NClECP=     1 NCelD=      1
         NCelK=      1 NCelE2=     1 NClLst=     1 CellRange=     0.0.
 One-electron integrals computed using PRISM.
 One-electron integral symmetry used in STVInt
 NBasis=   850 RedAO= T EigKep=  4.66D-06  NBF=   850
 NBsUse=   850 1.00D-06 EigRej= -1.00D+00 NBFU=   850
 Precomputing XC quadrature grid using
 IXCGrd= 4 IRadAn=       99590 IRanWt=          -1 IRanGd=           0 AccXCQ= 0.00D+00.
 Generated NRdTot=       0 NPtTot=           0 NUsed=           0 NTot=          32
 NSgBfM=   698   698   698   698   698 MxSgAt=    72 MxSgA2=    72.
 Leave Link  302 at Mon Feb  7 16:12:18 2022, MaxMem=  8589934592 cpu:              20.2 elap:               0.9
 (Enter /share/apps/g16.b01_avx2/g16/l303.exe)
 DipDrv:  MaxL=1.
 Leave Link  303 at Mon Feb  7 16:12:18 2022, MaxMem=  8589934592 cpu:               1.7 elap:               0.1
 (Enter /share/apps/g16.b01_avx2/g16/l401.exe)
 ExpMin= 4.38D-02 ExpMax= 5.48D+03 ExpMxC= 8.25D+02 IAcc=4 IRadAn=    199590 AccDes= 0.00D+00
 Harris functional with IExCor= 1009 and IRadAn=  199590 diagonalized for initial guess.
 HarFok:  IExCor= 1009 AccDes= 0.00D+00 IRadAn=    199590 IDoV= 1 UseB2=F ITyADJ=14
 ICtDFT=  3500011 ScaDFX=  1.000000  1.000000  1.000000  1.000000
 FoFCou: FMM=F IPFlag=           0 FMFlag=      100000 FMFlg1=        2001
         NFxFlg=           0 DoJE=T BraDBF=F KetDBF=T FulRan=T
         wScrn=  0.000000 ICntrl=       500 IOpCl=  0 I1Cent=   200000004 NGrid=           0
         NMat0=    1 NMatS0=      1 NMatT0=    0 NMatD0=    1 NMtDS0=    0 NMtDT0=    0
 Petite list used in FoFCou.
 Harris En= -1731.10749046085    
 JPrj=0 DoOrth=F DoCkMO=F.
 Leave Link  401 at Mon Feb  7 16:12:25 2022, MaxMem=  8589934592 cpu:             159.7 elap:               6.7
 (Enter /share/apps/g16.b01_avx2/g16/l502.exe)
 Integral symmetry usage will be decided dynamically.
 Closed shell SCF:
 Using DIIS extrapolation, IDIIS=  1040.
 NGot=  8589934592 LenX=  8588460558 LenY=  8587737208
 Requested convergence on RMS density matrix=1.00D-08 within 128 cycles.
 Requested convergence on MAX density matrix=1.00D-06.
 Requested convergence on             energy=1.00D-06.
 No special actions if energy rises.
 Fock matrices will be formed incrementally for  20 cycles.

 Cycle   1  Pass 1  IDiag  1:
 FoFJK:  IHMeth= 1 ICntrl=       0 DoSepK=F KAlg= 0 I1Cent=           0 FoldK=F
 IRaf= 660000000 NMat=       1 IRICut=       1 DoRegI=T DoRafI=F ISym2E= 0 IDoP0=0 IntGTp=1.
 FoFCou: FMM=T IPFlag=           0 FMFlag=      100000 FMFlg1=        2001
         NFxFlg=           0 DoJE=F BraDBF=F KetDBF=F FulRan=T
         wScrn=  0.000000 ICntrl=         0 IOpCl=  0 I1Cent=           0 NGrid=           0
         NMat0=    1 NMatS0=      1 NMatT0=    0 NMatD0=    1 NMtDS0=    0 NMtDT0=    0
 Symmetry not used in FoFCou.
 FMM levels:  10  Number of levels for PrismC:   9
 Inv3:  Mode=1 IEnd=    74790147.
 Iteration    1 A*A^-1 deviation from unit magnitude is 3.11D-15 for    724.
 Iteration    1 A*A^-1 deviation from orthogonality  is 3.33D-15 for   2723   2164.
 Iteration    1 A^-1*A deviation from unit magnitude is 3.11D-15 for    724.
 Iteration    1 A^-1*A deviation from orthogonality  is 2.22D-15 for   4783   2174.
 E= -1729.90377004988    
 DIIS: error= 1.65D-02 at cycle   1 NSaved=   1.
 NSaved= 1 IEnMin= 1 EnMin= -1729.90377004988     IErMin= 1 ErrMin= 1.65D-02
 ErrMax= 1.65D-02  0.00D+00 EMaxC= 1.00D-01 BMatC= 1.03D+00 BMatP= 1.03D+00
 IDIUse=3 WtCom= 8.35D-01 WtEn= 1.65D-01
 Coeff-Com:  0.100D+01
 Coeff-En:   0.100D+01
 Coeff:      0.100D+01
 Gap=     0.259 Goal=   None    Shift=    0.000
 GapD=    0.259 DampG=1.000 DampE=0.500 DampFc=0.5000 IDamp=-1.
 Damping current iteration by 5.00D-01
 RMSDP=1.03D-02 MaxDP=2.10D+00              OVMax= 2.02D-01

 Cycle   2  Pass 1  IDiag  1:
 RMSU=  4.65D-03    CP:  1.15D+00
 E= -1730.21618209857     Delta-E=       -0.312412048681 Rises=F Damp=T
 DIIS: error= 6.22D-03 at cycle   2 NSaved=   2.
 NSaved= 2 IEnMin= 2 EnMin= -1730.21618209857     IErMin= 2 ErrMin= 6.22D-03
 ErrMax= 6.22D-03  0.00D+00 EMaxC= 1.00D-01 BMatC= 1.16D-01 BMatP= 1.03D+00
 IDIUse=3 WtCom= 9.38D-01 WtEn= 6.22D-02
 Coeff-Com:  0.157D+00 0.843D+00
 Coeff-En:   0.252D+00 0.748D+00
 Coeff:      0.163D+00 0.837D+00
 Gap=     0.287 Goal=   None    Shift=    0.000
 RMSDP=5.28D-03 MaxDP=1.17D+00 DE=-3.12D-01 OVMax= 1.23D-01

 Cycle   3  Pass 1  IDiag  1:
 RMSU=  2.26D-03    CP:  9.24D-01  2.82D-01
 E= -1730.69410110736     Delta-E=       -0.477919008796 Rises=F Damp=F
 DIIS: error= 6.14D-03 at cycle   3 NSaved=   3.
 NSaved= 3 IEnMin= 3 EnMin= -1730.69410110736     IErMin= 3 ErrMin= 6.14D-03
 ErrMax= 6.14D-03  0.00D+00 EMaxC= 1.00D-01 BMatC= 9.24D-02 BMatP= 1.16D-01
 IDIUse=3 WtCom= 9.39D-01 WtEn= 6.14D-02
 Coeff-Com:  0.235D-01 0.466D+00 0.511D+00
 Coeff-En:   0.000D+00 0.000D+00 0.100D+01
 Coeff:      0.220D-01 0.437D+00 0.541D+00
 Gap=     0.276 Goal=   None    Shift=    0.000
 RMSDP=1.11D-03 MaxDP=1.07D-01 DE=-4.78D-01 OVMax= 5.10D-02

 Cycle   4  Pass 1  IDiag  1:
 RMSU=  1.04D-03    CP:  9.39D-01  3.37D-01  9.32D-01
 E= -1730.76026681952     Delta-E=       -0.066165712160 Rises=F Damp=F
 DIIS: error= 2.01D-03 at cycle   4 NSaved=   4.
 NSaved= 4 IEnMin= 4 EnMin= -1730.76026681952     IErMin= 4 ErrMin= 2.01D-03
 ErrMax= 2.01D-03  0.00D+00 EMaxC= 1.00D-01 BMatC= 1.27D-02 BMatP= 9.24D-02
 IDIUse=3 WtCom= 9.80D-01 WtEn= 2.01D-02
 Coeff-Com: -0.107D-01 0.619D-01 0.289D+00 0.660D+00
 Coeff-En:   0.000D+00 0.000D+00 0.128D+00 0.872D+00
 Coeff:     -0.105D-01 0.607D-01 0.285D+00 0.664D+00
 Gap=     0.274 Goal=   None    Shift=    0.000
 RMSDP=3.91D-04 MaxDP=3.84D-02 DE=-6.62D-02 OVMax= 1.62D-02

 Cycle   5  Pass 1  IDiag  1:
 RMSU=  1.93D-04    CP:  9.33D-01  3.15D-01  9.69D-01  7.14D-01
 E= -1730.77057219948     Delta-E=       -0.010305379957 Rises=F Damp=F
 DIIS: error= 3.54D-04 at cycle   5 NSaved=   5.
 NSaved= 5 IEnMin= 5 EnMin= -1730.77057219948     IErMin= 5 ErrMin= 3.54D-04
 ErrMax= 3.54D-04  0.00D+00 EMaxC= 1.00D-01 BMatC= 4.93D-04 BMatP= 1.27D-02
 IDIUse=3 WtCom= 9.96D-01 WtEn= 3.54D-03
 Coeff-Com: -0.557D-02 0.137D-01 0.118D+00 0.321D+00 0.552D+00
 Coeff-En:   0.000D+00 0.000D+00 0.000D+00 0.000D+00 0.100D+01
 Coeff:     -0.555D-02 0.137D-01 0.118D+00 0.320D+00 0.554D+00
 Gap=     0.268 Goal=   None    Shift=    0.000
 RMSDP=6.11D-05 MaxDP=5.83D-03 DE=-1.03D-02 OVMax= 3.17D-03

 Cycle   6  Pass 1  IDiag  1:
 RMSU=  5.21D-05    CP:  9.32D-01  3.16D-01  9.73D-01  7.05D-01  8.70D-01
 E= -1730.77098314011     Delta-E=       -0.000410940629 Rises=F Damp=F
 DIIS: error= 8.29D-05 at cycle   6 NSaved=   6.
 NSaved= 6 IEnMin= 6 EnMin= -1730.77098314011     IErMin= 6 ErrMin= 8.29D-05
 ErrMax= 8.29D-05  0.00D+00 EMaxC= 1.00D-01 BMatC= 2.78D-05 BMatP= 4.93D-04
 IDIUse=1 WtCom= 1.00D+00 WtEn= 0.00D+00
 Coeff-Com: -0.191D-02 0.190D-02 0.339D-01 0.986D-01 0.261D+00 0.607D+00
 Coeff:     -0.191D-02 0.190D-02 0.339D-01 0.986D-01 0.261D+00 0.607D+00
 Gap=     0.268 Goal=   None    Shift=    0.000
 RMSDP=2.16D-05 MaxDP=4.48D-03 DE=-4.11D-04 OVMax= 6.87D-04

 Cycle   7  Pass 1  IDiag  1:
 RMSU=  1.64D-05    CP:  9.32D-01  3.14D-01  9.74D-01  7.08D-01  8.69D-01
                    CP:  8.76D-01
 E= -1730.77100476076     Delta-E=       -0.000021620657 Rises=F Damp=F
 DIIS: error= 1.70D-05 at cycle   7 NSaved=   7.
 NSaved= 7 IEnMin= 7 EnMin= -1730.77100476076     IErMin= 7 ErrMin= 1.70D-05
 ErrMax= 1.70D-05  0.00D+00 EMaxC= 1.00D-01 BMatC= 1.26D-06 BMatP= 2.78D-05
 IDIUse=1 WtCom= 1.00D+00 WtEn= 0.00D+00
 Coeff-Com: -0.558D-03 0.260D-03 0.866D-02 0.257D-01 0.903D-01 0.259D+00
 Coeff-Com:  0.617D+00
 Coeff:     -0.558D-03 0.260D-03 0.866D-02 0.257D-01 0.903D-01 0.259D+00
 Coeff:      0.617D+00
 Gap=     0.268 Goal=   None    Shift=    0.000
 RMSDP=7.56D-06 MaxDP=9.53D-04 DE=-2.16D-05 OVMax= 2.62D-04

 Cycle   8  Pass 1  IDiag  1:
 RMSU=  4.33D-06    CP:  9.31D-01  3.13D-01  9.75D-01  7.09D-01  8.71D-01
                    CP:  8.54D-01  8.27D-01
 E= -1730.77100574588     Delta-E=       -0.000000985120 Rises=F Damp=F
 DIIS: error= 1.08D-05 at cycle   8 NSaved=   8.
 NSaved= 8 IEnMin= 8 EnMin= -1730.77100574588     IErMin= 8 ErrMin= 1.08D-05
 ErrMax= 1.08D-05  0.00D+00 EMaxC= 1.00D-01 BMatC= 2.38D-07 BMatP= 1.26D-06
 IDIUse=1 WtCom= 1.00D+00 WtEn= 0.00D+00
 Coeff-Com: -0.565D-04-0.839D-04 0.301D-03 0.824D-03 0.161D-01 0.537D-01
 Coeff-Com:  0.321D+00 0.608D+00
 Coeff:     -0.565D-04-0.839D-04 0.301D-03 0.824D-03 0.161D-01 0.537D-01
 Coeff:      0.321D+00 0.608D+00
 Gap=     0.268 Goal=   None    Shift=    0.000
 RMSDP=1.93D-06 MaxDP=1.59D-04 DE=-9.85D-07 OVMax= 1.27D-04

 Cycle   9  Pass 1  IDiag  1:
 RMSU=  1.49D-06    CP:  9.31D-01  3.13D-01  9.75D-01  7.09D-01  8.75D-01
                    CP:  8.56D-01  8.37D-01  8.63D-01
 E= -1730.77100589659     Delta-E=       -0.000000150706 Rises=F Damp=F
 DIIS: error= 5.16D-06 at cycle   9 NSaved=   9.
 NSaved= 9 IEnMin= 9 EnMin= -1730.77100589659     IErMin= 9 ErrMin= 5.16D-06
 ErrMax= 5.16D-06  0.00D+00 EMaxC= 1.00D-01 BMatC= 6.09D-08 BMatP= 2.38D-07
 IDIUse=1 WtCom= 1.00D+00 WtEn= 0.00D+00
 Coeff-Com:  0.345D-04-0.929D-04-0.890D-03-0.276D-02-0.895D-03-0.681D-03
 Coeff-Com:  0.123D+00 0.393D+00 0.489D+00
 Coeff:      0.345D-04-0.929D-04-0.890D-03-0.276D-02-0.895D-03-0.681D-03
 Coeff:      0.123D+00 0.393D+00 0.489D+00
 Gap=     0.268 Goal=   None    Shift=    0.000
 RMSDP=8.59D-07 MaxDP=1.04D-04 DE=-1.51D-07 OVMax= 4.45D-05

 Cycle  10  Pass 1  IDiag  1:
 RMSU=  3.82D-07    CP:  9.31D-01  3.13D-01  9.75D-01  7.09D-01  8.77D-01
                    CP:  8.61D-01  8.54D-01  8.87D-01  6.96D-01
 E= -1730.77100594503     Delta-E=       -0.000000048440 Rises=F Damp=F
 DIIS: error= 6.78D-07 at cycle  10 NSaved=  10.
 NSaved=10 IEnMin=10 EnMin= -1730.77100594503     IErMin=10 ErrMin= 6.78D-07
 ErrMax= 6.78D-07  0.00D+00 EMaxC= 1.00D-01 BMatC= 9.05D-10 BMatP= 6.09D-08
 IDIUse=1 WtCom= 1.00D+00 WtEn= 0.00D+00
 Coeff-Com:  0.163D-04-0.249D-04-0.311D-03-0.101D-02-0.131D-02-0.487D-02
 Coeff-Com:  0.175D-01 0.840D-01 0.148D+00 0.759D+00
 Coeff:      0.163D-04-0.249D-04-0.311D-03-0.101D-02-0.131D-02-0.487D-02
 Coeff:      0.175D-01 0.840D-01 0.148D+00 0.759D+00
 Gap=     0.268 Goal=   None    Shift=    0.000
 RMSDP=2.17D-07 MaxDP=4.12D-05 DE=-4.84D-08 OVMax= 6.10D-06

 Cycle  11  Pass 1  IDiag  1:
 RMSU=  1.31D-07    CP:  9.31D-01  3.13D-01  9.75D-01  7.09D-01  8.77D-01
                    CP:  8.61D-01  8.58D-01  9.00D-01  7.08D-01  9.42D-01
 E= -1730.77100594573     Delta-E=       -0.000000000698 Rises=F Damp=F
 DIIS: error= 2.01D-07 at cycle  11 NSaved=  11.
 NSaved=11 IEnMin=11 EnMin= -1730.77100594573     IErMin=11 ErrMin= 2.01D-07
 ErrMax= 2.01D-07  0.00D+00 EMaxC= 1.00D-01 BMatC= 1.97D-10 BMatP= 9.05D-10
 IDIUse=1 WtCom= 1.00D+00 WtEn= 0.00D+00
 Coeff-Com:  0.573D-05-0.574D-05-0.908D-04-0.312D-03-0.572D-03-0.251D-02
 Coeff-Com: -0.143D-03 0.122D-01 0.351D-01 0.380D+00 0.576D+00
 Coeff:      0.573D-05-0.574D-05-0.908D-04-0.312D-03-0.572D-03-0.251D-02
 Coeff:     -0.143D-03 0.122D-01 0.351D-01 0.380D+00 0.576D+00
 Gap=     0.268 Goal=   None    Shift=    0.000
 RMSDP=6.33D-08 MaxDP=9.45D-06 DE=-6.98D-10 OVMax= 1.97D-06

 Cycle  12  Pass 1  IDiag  1:
 RMSU=  4.19D-08    CP:  9.31D-01  3.13D-01  9.75D-01  7.09D-01  8.77D-01
                    CP:  8.60D-01  8.58D-01  9.02D-01  7.17D-01  9.80D-01
                    CP:  8.51D-01
 E= -1730.77100594587     Delta-E=       -0.000000000142 Rises=F Damp=F
 DIIS: error= 5.70D-08 at cycle  12 NSaved=  12.
 NSaved=12 IEnMin=12 EnMin= -1730.77100594587     IErMin=12 ErrMin= 5.70D-08
 ErrMax= 5.70D-08  0.00D+00 EMaxC= 1.00D-01 BMatC= 1.54D-11 BMatP= 1.97D-10
 IDIUse=1 WtCom= 1.00D+00 WtEn= 0.00D+00
 Coeff-Com:  0.125D-06 0.961D-06 0.655D-05 0.668D-05-0.408D-04-0.395D-03
 Coeff-Com: -0.237D-02-0.674D-02-0.682D-02 0.549D-01 0.243D+00 0.719D+00
 Coeff:      0.125D-06 0.961D-06 0.655D-05 0.668D-05-0.408D-04-0.395D-03
 Coeff:     -0.237D-02-0.674D-02-0.682D-02 0.549D-01 0.243D+00 0.719D+00
 Gap=     0.268 Goal=   None    Shift=    0.000
 RMSDP=1.95D-08 MaxDP=1.89D-06 DE=-1.42D-10 OVMax= 6.08D-07

 Cycle  13  Pass 1  IDiag  1:
 RMSU=  1.27D-08    CP:  9.31D-01  3.13D-01  9.75D-01  7.09D-01  8.77D-01
                    CP:  8.60D-01  8.58D-01  9.02D-01  7.17D-01  1.00D+00
                    CP:  8.91D-01  8.08D-01
 E= -1730.77100594591     Delta-E=       -0.000000000039 Rises=F Damp=F
 DIIS: error= 1.72D-08 at cycle  13 NSaved=  13.
 NSaved=13 IEnMin=13 EnMin= -1730.77100594591     IErMin=13 ErrMin= 1.72D-08
 ErrMax= 1.72D-08  0.00D+00 EMaxC= 1.00D-01 BMatC= 1.31D-12 BMatP= 1.54D-11
 IDIUse=1 WtCom= 1.00D+00 WtEn= 0.00D+00
 Coeff-Com: -0.286D-06 0.752D-06 0.933D-05 0.229D-04 0.215D-04-0.170D-04
 Coeff-Com: -0.105D-02-0.383D-02-0.538D-02 0.109D-02 0.733D-01 0.326D+00
 Coeff-Com:  0.610D+00
 Coeff:     -0.286D-06 0.752D-06 0.933D-05 0.229D-04 0.215D-04-0.170D-04
 Coeff:     -0.105D-02-0.383D-02-0.538D-02 0.109D-02 0.733D-01 0.326D+00
 Coeff:      0.610D+00
 Gap=     0.268 Goal=   None    Shift=    0.000
 RMSDP=5.04D-09 MaxDP=5.64D-07 DE=-3.91D-11 OVMax= 1.26D-07

 Error on total polarization charges =  0.02427
 SCF Done:  E(RPBE1PBE) =  -1730.77100595     A.U. after   13 cycles
            NFock= 13  Conv=0.50D-08     -V/T= 2.0086
 KE= 1.716095399598D+03 PE=-1.103448132266D+04 EE= 4.088010102399D+03
 Leave Link  502 at Mon Feb  7 16:14:16 2022, MaxMem=  8589934592 cpu:            2617.5 elap:             111.0
 (Enter /share/apps/g16.b01_avx2/g16/l601.exe)
 Copying SCF densities to generalized density rwf, IOpCl= 0 IROHF=0.

 **********************************************************************

            Population analysis using the SCF Density.

 **********************************************************************

 Orbital symmetries:
       Occupied  (A) (A) (A) (A) (A) (A) (A) (A) (A) (A) (A) (A)
                 (A) (A) (A) (A) (A) (A) (A) (A) (A) (A) (A) (A)
                 (A) (A) (A) (A) (A) (A) (A) (A) (A) (A) (A) (A)
                 (A) (A) (A) (A) (A) (A) (A) (A) (A) (A) (A) (A)
                 (A) (A) (A) (A) (A) (A) (A) (A) (A) (A) (A) (A)
                 (A) (A) (A) (A) (A) (A) (A) (A) (A) (A) (A) (A)
                 (A) (A) (A) (A) (A) (A) (A) (A) (A) (A) (A) (A)
                 (A) (A) (A) (A) (A) (A) (A) (A) (A) (A) (A) (A)
                 (A) (A) (A) (A) (A) (A) (A) (A) (A) (A) (A) (A)
                 (A) (A) (A) (A) (A) (A) (A) (A) (A) (A) (A) (A)
                 (A) (A) (A) (A) (A) (A) (A) (A) (A) (A) (A) (A)
                 (A) (A)
       Virtual   (A) (A) (A) (A) (A) (A) (A) (A) (A) (A) (A) (A)
                 (A) (A) (A) (A) (A) (A) (A) (A) (A) (A) (A) (A)
                 (A) (A) (A) (A) (A) (A) (A) (A) (A) (A) (A) (A)
                 (A) (A) (A) (A) (A) (A) (A) (A) (A) (A) (A) (A)
                 (A) (A) (A) (A) (A) (A) (A) (A) (A) (A) (A) (A)
                 (A) (A) (A) (A) (A) (A) (A) (A) (A) (A) (A) (A)
                 (A) (A) (A) (A) (A) (A) (A) (A) (A) (A) (A) (A)
                 (A) (A) (A) (A) (A) (A) (A) (A) (A) (A) (A) (A)
                 (A) (A) (A) (A) (A) (A) (A) (A) (A) (A) (A) (A)
                 (A) (A) (A) (A) (A) (A) (A) (A) (A) (A) (A) (A)
                 (A) (A) (A) (A) (A) (A) (A) (A) (A) (A) (A) (A)
                 (A) (A) (A) (A) (A) (A) (A) (A) (A) (A) (A) (A)
                 (A) (A) (A) (A) (A) (A) (A) (A) (A) (A) (A) (A)
                 (A) (A) (A) (A) (A) (A) (A) (A) (A) (A) (A) (A)
                 (A) (A) (A) (A) (A) (A) (A) (A) (A) (A) (A) (A)
                 (A) (A) (A) (A) (A) (A) (A) (A) (A) (A) (A) (A)
                 (A) (A) (A) (A) (A) (A) (A) (A) (A) (A) (A) (A)
                 (A) (A) (A) (A) (A) (A) (A) (A) (A) (A) (A) (A)
                 (A) (A) (A) (A) (A) (A) (A) (A) (A) (A) (A) (A)
                 (A) (A) (A) (A) (A) (A) (A) (A) (A) (A) (A) (A)
                 (A) (A) (A) (A) (A) (A) (A) (A) (A) (A) (A) (A)
                 (A) (A) (A) (A) (A) (A) (A) (A) (A) (A) (A) (A)
                 (A) (A) (A) (A) (A) (A) (A) (A) (A) (A) (A) (A)
                 (A) (A) (A) (A) (A) (A) (A) (A) (A) (A) (A) (A)
                 (A) (A) (A) (A) (A) (A) (A) (A) (A) (A) (A) (A)
                 (A) (A) (A) (A) (A) (A) (A) (A) (A) (A) (A) (A)
                 (A) (A) (A) (A) (A) (A) (A) (A) (A) (A) (A) (A)
                 (A) (A) (A) (A) (A) (A) (A) (A) (A) (A) (A) (A)
                 (A) (A) (A) (A) (A) (A) (A) (A) (A) (A) (A) (A)
                 (A) (A) (A) (A) (A) (A) (A) (A) (A) (A) (A) (A)
                 (A) (A) (A) (A) (A) (A) (A) (A) (A) (A) (A) (A)
                 (A) (A) (A) (A) (A) (A) (A) (A) (A) (A) (A) (A)
                 (A) (A) (A) (A) (A) (A) (A) (A) (A) (A) (A) (A)
                 (A) (A) (A) (A) (A) (A) (A) (A) (A) (A) (A) (A)
                 (A) (A) (A) (A) (A) (A) (A) (A) (A) (A) (A) (A)
                 (A) (A) (A) (A) (A) (A) (A) (A) (A) (A) (A) (A)
                 (A) (A) (A) (A) (A) (A) (A) (A) (A) (A) (A) (A)
                 (A) (A) (A) (A) (A) (A) (A) (A) (A) (A) (A) (A)
                 (A) (A) (A) (A) (A) (A) (A) (A) (A) (A) (A) (A)
                 (A) (A) (A) (A) (A) (A) (A) (A) (A) (A) (A) (A)
                 (A) (A) (A) (A) (A) (A) (A) (A) (A) (A) (A) (A)
                 (A) (A) (A) (A) (A) (A) (A) (A) (A) (A) (A) (A)
                 (A) (A) (A) (A) (A) (A) (A) (A) (A) (A) (A) (A)
                 (A) (A) (A) (A) (A) (A) (A) (A) (A) (A) (A) (A)
                 (A) (A) (A) (A) (A) (A) (A) (A) (A) (A) (A) (A)
                 (A) (A) (A) (A) (A) (A) (A) (A) (A) (A) (A) (A)
                 (A) (A) (A) (A) (A) (A) (A) (A) (A) (A) (A) (A)
                 (A) (A) (A) (A) (A) (A) (A) (A) (A) (A) (A) (A)
                 (A) (A) (A) (A) (A) (A) (A) (A) (A) (A) (A) (A)
                 (A) (A) (A) (A) (A) (A) (A) (A) (A) (A) (A) (A)
                 (A) (A) (A) (A) (A) (A) (A) (A) (A) (A) (A) (A)
                 (A) (A) (A) (A) (A) (A) (A) (A) (A) (A) (A) (A)
                 (A) (A) (A) (A) (A) (A) (A) (A) (A) (A) (A) (A)
                 (A) (A) (A) (A) (A) (A) (A) (A) (A) (A) (A) (A)
                 (A) (A) (A) (A) (A) (A) (A) (A) (A) (A) (A) (A)
                 (A) (A) (A) (A) (A) (A) (A) (A) (A) (A) (A) (A)
                 (A) (A) (A) (A) (A) (A) (A) (A) (A) (A) (A) (A)
                 (A) (A) (A) (A) (A) (A) (A) (A) (A) (A) (A) (A)
                 (A) (A) (A) (A) (A) (A) (A) (A) (A) (A) (A) (A)
                 (A) (A) (A) (A) (A) (A) (A) (A)
 The electronic state is 1-A.
 Alpha  occ. eigenvalues --  -19.21968 -19.21959 -19.21951 -19.21921 -19.21790
 Alpha  occ. eigenvalues --  -19.21766 -19.20419 -14.44600 -14.44300 -14.44291
 Alpha  occ. eigenvalues --  -14.44289 -14.44271 -14.44163 -14.43600 -10.35443
 Alpha  occ. eigenvalues --  -10.35424 -10.35414 -10.35387 -10.35359 -10.35241
 Alpha  occ. eigenvalues --  -10.34697 -10.29757 -10.29745 -10.29726 -10.29724
 Alpha  occ. eigenvalues --  -10.29659 -10.29291 -10.26752 -10.23805 -10.23753
 Alpha  occ. eigenvalues --  -10.23752 -10.23748 -10.23736 -10.23709 -10.23553
 Alpha  occ. eigenvalues --   -1.10223  -1.09956  -1.09614  -1.09251  -1.08938
 Alpha  occ. eigenvalues --   -1.08780  -1.07129  -0.97650  -0.97544  -0.97418
 Alpha  occ. eigenvalues --   -0.97306  -0.97223  -0.96918  -0.96243  -0.83990
 Alpha  occ. eigenvalues --   -0.83121  -0.81887  -0.80439  -0.78958  -0.77743
 Alpha  occ. eigenvalues --   -0.75279  -0.74032  -0.70583  -0.70338  -0.69868
 Alpha  occ. eigenvalues --   -0.69040  -0.67723  -0.66188  -0.63176  -0.62291
 Alpha  occ. eigenvalues --   -0.61765  -0.61369  -0.61076  -0.60847  -0.60636
 Alpha  occ. eigenvalues --   -0.60043  -0.58060  -0.55504  -0.52930  -0.52058
 Alpha  occ. eigenvalues --   -0.51745  -0.51264  -0.51006  -0.50635  -0.50459
 Alpha  occ. eigenvalues --   -0.50154  -0.48974  -0.48703  -0.48332  -0.48029
 Alpha  occ. eigenvalues --   -0.47958  -0.47630  -0.47344  -0.46783  -0.46576
 Alpha  occ. eigenvalues --   -0.45770  -0.45657  -0.45166  -0.45066  -0.44603
 Alpha  occ. eigenvalues --   -0.44261  -0.44211  -0.43491  -0.42416  -0.42122
 Alpha  occ. eigenvalues --   -0.41751  -0.41419  -0.41114  -0.40806  -0.40581
 Alpha  occ. eigenvalues --   -0.40440  -0.40246  -0.39971  -0.39789  -0.39768
 Alpha  occ. eigenvalues --   -0.39669  -0.39637  -0.39297  -0.38601  -0.38361
 Alpha  occ. eigenvalues --   -0.38241  -0.37918  -0.37504  -0.37212  -0.36539
 Alpha  occ. eigenvalues --   -0.30115  -0.30020  -0.29930  -0.29807  -0.29681
 Alpha  occ. eigenvalues --   -0.29451  -0.28977  -0.28801  -0.28626  -0.28413
 Alpha  occ. eigenvalues --   -0.27928  -0.27818  -0.27560  -0.27321
 Alpha virt. eigenvalues --   -0.00505  -0.00051   0.00484   0.00896   0.01164
 Alpha virt. eigenvalues --    0.01235   0.01323   0.01589   0.01631   0.02102
 Alpha virt. eigenvalues --    0.02304   0.02486   0.02639   0.02817   0.03228
 Alpha virt. eigenvalues --    0.03349   0.03559   0.04040   0.04419   0.04602
 Alpha virt. eigenvalues --    0.05002   0.05120   0.05395   0.05687   0.05782
 Alpha virt. eigenvalues --    0.06155   0.06499   0.06673   0.06715   0.07011
 Alpha virt. eigenvalues --    0.07115   0.07266   0.07576   0.07902   0.08024
 Alpha virt. eigenvalues --    0.08124   0.08225   0.08589   0.08630   0.08693
 Alpha virt. eigenvalues --    0.09288   0.09422   0.09957   0.09996   0.10225
 Alpha virt. eigenvalues --    0.10632   0.11053   0.11153   0.11282   0.11573
 Alpha virt. eigenvalues --    0.11738   0.11778   0.12023   0.12131   0.12279
 Alpha virt. eigenvalues --    0.12398   0.12603   0.12986   0.13025   0.13351
 Alpha virt. eigenvalues --    0.13599   0.13870   0.14144   0.14427   0.14785
 Alpha virt. eigenvalues --    0.14944   0.15103   0.15198   0.15382   0.15738
 Alpha virt. eigenvalues --    0.15846   0.16085   0.16639   0.16815   0.17119
 Alpha virt. eigenvalues --    0.17191   0.17402   0.17475   0.17665   0.17850
 Alpha virt. eigenvalues --    0.18071   0.18336   0.18495   0.18657   0.18823
 Alpha virt. eigenvalues --    0.19113   0.19266   0.19324   0.19547   0.19838
 Alpha virt. eigenvalues --    0.20140   0.20334   0.20482   0.20912   0.21144
 Alpha virt. eigenvalues --    0.21269   0.21666   0.21744   0.22054   0.22256
 Alpha virt. eigenvalues --    0.22390   0.22625   0.22763   0.23235   0.23511
 Alpha virt. eigenvalues --    0.23741   0.23993   0.24239   0.24332   0.24434
 Alpha virt. eigenvalues --    0.24604   0.24778   0.24880   0.25034   0.25221
 Alpha virt. eigenvalues --    0.25317   0.25533   0.25619   0.25775   0.25906
 Alpha virt. eigenvalues --    0.26034   0.26282   0.26459   0.26805   0.26963
 Alpha virt. eigenvalues --    0.27206   0.27358   0.27759   0.27882   0.28068
 Alpha virt. eigenvalues --    0.28185   0.28397   0.28576   0.28950   0.29185
 Alpha virt. eigenvalues --    0.29326   0.29483   0.29668   0.30097   0.30157
 Alpha virt. eigenvalues --    0.30380   0.30497   0.30685   0.30864   0.31114
 Alpha virt. eigenvalues --    0.31253   0.31501   0.31748   0.32020   0.32477
 Alpha virt. eigenvalues --    0.32601   0.32851   0.33376   0.33499   0.33651
 Alpha virt. eigenvalues --    0.33751   0.34094   0.34371   0.34525   0.34690
[...]
 .,0.,0.,0.,0.,0.,0.,0.00000004,0.,0.00000002,0.00000001,0.,-0.00000001
 ,0.,0.00000002,0.,0.,-0.00000001,0.,0.00000026,0.,-0.00000010,-0.00000
 003,-0.00000002,0.00000004,0.,-0.00000007,0.,0.00000004,0.00000009,0.0
 0000007,0.00000098,0.00000018,0.00000118,0.00000008,0.00000027,-0.0000
 0033,-0.00000035,0.00000072,0.00000035,0.00000019,-0.00000075,-0.00000
 058,0.00001049,-0.00000092,-0.00001386,-0.00000104,-0.00000395,0.00000
 187,0.00000193,-0.00001039,-0.00000113,0.00000591,0.00000165,0.0000049
 8,0.00290616,-0.06426605,0.06934718,-0.00139695,-0.00443930,0.01773919
 ,-0.00356567,0.06898487,0.00001541,-0.00001195,-0.00002356,-0.00008367
 ,-0.00004799,0.00003618,0.00003150,0.00000841,-0.00000110,0.00005487,0
 .00003496,-0.00005062,-0.00002676,-0.00002780,0.00002874,0.00000124,0.
 00000039,0.00000493,-0.00001101,0.00000537,-0.00000420,0.00000356,-0.0
 0000111,-0.00000001,0.00005762,-0.00003135,0.00020750,-0.00004791,-0.0
 0004155,-0.00008224,0.00012862,0.00051415,0.00175059,-0.00033585,-0.00
 022173,-0.00015394,0.00076996,0.00368049,-0.01810755,-0.00126338,0.001
 65161,-0.00078848,0.00023603,-0.00088164,0.00072466,0.00063503,-0.0002
 5792,0.00006175,-0.00019626,0.00007118,0.00010899,-0.00001414,-0.00000
 317,-0.00001033,-0.00021289,-0.00344805,-0.00056780,0.00000009,0.,-0.0
 0000080,-0.00000150,-0.00000081,0.00000061,0.00000047,0.00000015,-0.00
 000005,0.00000099,0.00000068,-0.00000094,-0.00000043,-0.00000050,0.000
 00057,0.,0.,0.00000007,-0.00000017,0.00000009,-0.00000003,0.00000005,-
 0.00000002,-0.00000002,0.00000008,-0.00000004,0.00000005,-0.00000006,0
 .00000004,0.,0.00000646,-0.00000427,0.00000622,-0.00000305,0.00000336,
 -0.00000329,-0.00000003,0.00000002,-0.00000008,0.,0.,0.00000003,-0.000
 11617,0.00001630,-0.00009539,0.00002501,-0.00002161,0.00001735,0.00005
 491,-0.00003358,0.00000708,0.00002593,-0.00001123,-0.00000070,0.000000
 01,-0.00000002,-0.00000003,0.,0.,0.,0.00000002,0.,-0.00000001,0.000000
 06,0.00000004,-0.00000006,0.,0.,0.,0.,0.,0.,0.,0.,0.,0.,0.,0.,-0.00000
 002,-0.00000003,0.00000005,-0.00000007,-0.00000002,0.00000004,-0.00000
 001,0.,0.,0.00000001,0.,0.,0.,0.,0.,-0.00000001,0.,0.,-0.00000007,-0.0
 0000002,-0.00000006,0.,0.,0.00000004,0.00000001,-0.00000002,-0.0000000
 2,-0.00000001,0.00000004,0.00000002,-0.00000061,0.00000005,0.00000040,
 0.00000005,0.,-0.00000006,0.00000008,0.00000018,0.00000002,-0.00000011
 ,-0.00000027,-0.00000019,-0.00000517,-0.00000010,-0.00000303,-0.000000
 03,-0.00000020,0.00000089,0.00000054,-0.00000139,-0.00000070,-0.000000
 66,0.00000217,0.00000161,-0.00004153,0.00001218,0.00002320,0.00000164,
 0.00000048,-0.00000480,0.00000548,0.00000651,0.00000302,-0.00000313,-0
 .00002054,-0.00001126,-0.01266670,0.06688894,-0.30383714,0.00080701,0.
 00015601,-0.00275063,0.01352037,-0.06880514,0.32885848,0.00002370,0.00
 000585,0.00008985,-0.00014367,-0.00009775,0.00008222,0.00007267,0.0000
 2347,-0.00000626,0.00011636,0.00006777,-0.00009550,-0.00005661,-0.0000
 5251,0.00005641,0.00000193,-0.00000201,0.00001108,-0.00002333,0.000011
 86,-0.00000879,0.00000744,-0.00000238,0.00000012,0.00130138,-0.0002495
 5,0.00074661,-0.00030626,0.00011930,-0.00054871,-0.00016586,-0.0009949
 7,-0.00099157,-0.00015277,0.00000207,-0.00033309,-0.00198317,0.0013407
 6,0.00144353,-0.00068860,0.00052756,-0.00037064,0.00023063,-0.00015120
 ,0.00019712,0.00011060,0.00056344,0.00024192,-0.00008973,0.00031479,0.
 00003731,-0.00003575,-0.00002048,-0.00000308,0.00027500,-0.00012307,-0
 .00033565,0.00000054,0.,-0.00000129,-0.00000327,-0.00000166,0.00000130
 ,0.00000101,0.00000032,-0.00000002,0.00000230,0.00000128,-0.00000192,-
 0.00000107,-0.00000095,0.00000101,0.,0.,0.00000025,-0.00000057,0.00000
 026,-0.00000023,0.00000016,-0.00000006,0.,0.00000048,-0.00000030,0.000
 00038,-0.00000023,0.00000025,-0.00000021,0.00001459,-0.00000959,0.0000
 1292,-0.00000679,0.00000748,-0.00000762,-0.00000004,0.00000006,-0.0000
 0024,0.,-0.00000002,0.00000003,0.00006446,0.00007189,0.00005286,0.0000
 2203,-0.00003167,-0.00000318,-0.00001303,0.00001302,-0.00000050,0.0000
 1760,-0.00001071,-0.00000269,0.00000004,-0.00000004,-0.00000002,0.,0.,
 -0.00000001,0.00000004,0.,0.,0.00000016,0.00000006,-0.00000008,-0.0000
 0003,0.,0.00000001,0.,0.,0.,0.,0.,0.,0.,0.,0.,-0.00000007,-0.00000004,
 0.00000004,-0.00000017,-0.00000004,0.00000005,-0.00000003,0.00000001,0
 .00000002,0.00000002,0.,0.,-0.00000001,0.00000002,0.,-0.00000002,-0.00
 000002,0.,-0.00000018,-0.00000003,-0.00000014,0.00000003,0.,0.00000004
 ,0.00000004,-0.00000007,0.,-0.00000005,0.00000009,0.00000006,-0.000001
 39,0.00000004,0.00000081,0.00000008,0.00000003,-0.00000019,0.00000011,
 0.00000045,0.00000011,-0.00000021,-0.00000056,-0.00000040,-0.00000987,
 -0.00000027,-0.00000556,0.00000083,-0.00000035,0.00000136,0.00000119,-
 0.00000321,-0.00000088,-0.00000159,0.00000411,0.00000312,-0.00007369,0
 .00003065,0.00005010,0.00000775,0.00000422,-0.00001434,0.00000252,0.00
 002246,0.00000342,-0.00001192,-0.00003115,-0.00002303,-0.23865812,-0.1
 1431096,0.05926970,-0.01785301,-0.01341211,0.00666058,0.00263186,0.002
 57223,-0.00135197,0.25537358,-0.00000423,0.00015963,0.00006516,-0.0002
 8358,-0.00016075,0.00014288,0.00008434,0.00003231,0.00000378,0.0001607
 9,0.00012537,-0.00016283,-0.00007842,-0.00008127,0.00008761,0.00000082
 ,-0.00000681,0.00001944,-0.00003810,0.00002096,-0.00001358,0.00001134,
 -0.00000369,-0.00000014,0.00228260,-0.00254041,0.00186810,-0.00032973,
 0.00153388,-0.00106120,-0.00396235,-0.00492464,-0.00429254,-0.00049696
 ,-0.00014808,-0.00032485,-0.01955557,-0.01050448,0.00985278,-0.0020752
 7,-0.00054199,0.00101912,0.00042131,0.00007756,-0.00030032,0.00045223,
 0.00058950,0.00016234,0.00053866,-0.00111045,-0.00083859,-0.00002949,-
 0.00002531,-0.00001264,0.00002555,0.00096913,0.00007980,0.00000029,0.0
 0000012,-0.00000261,-0.00000501,-0.00000249,0.00000185,0.00000155,0.00
 000049,-0.00000006,0.00000322,0.00000197,-0.00000282,-0.00000148,-0.00
 000151,0.00000160,0.00000011,0.00000006,0.00000029,-0.00000078,0.00000
 035,-0.00000027,0.00000023,-0.00000008,0.,0.00000055,-0.00000028,0.000
 00045,-0.00000027,0.00000022,-0.00000025,0.00002231,-0.00001542,0.0000
 2110,-0.00001023,0.00001133,-0.00001163,0.,0.00000010,-0.00000034,0.,-
 0.00000002,0.00000007,0.00044784,-0.00000028,0.00010212,-0.00005513,0.
 00002977,-0.00004846,-0.00012195,0.00011007,-0.00003510,-0.00002177,-0
 .00000736,0.00000873,0.00000005,-0.00000004,-0.00000004,0.,0.00000001,
 -0.00000001,0.00000005,0.00000001,0.,0.00000018,0.00000008,-0.00000012
 ,-0.00000002,0.,0.,0.,0.,0.,0.,0.,0.,0.,0.,0.,-0.00000008,-0.00000006,
 0.00000007,-0.00000019,-0.00000007,0.00000007,-0.00000005,0.,0.0000000
 3,0.00000001,0.,0.,0.,0.00000002,0.,-0.00000001,-0.00000002,-0.0000000
 1,-0.00000028,-0.00000002,-0.00000018,0.00000002,-0.00000001,0.0000000
 5,0.00000003,-0.00000010,-0.00000002,-0.00000005,0.00000012,0.00000008
 ,-0.00000210,0.00000007,0.00000121,0.00000014,0.00000006,-0.00000028,0
 .00000019,0.00000066,0.00000016,-0.00000033,-0.00000089,-0.00000063,-0
 .00001573,-0.00000098,-0.00000923,0.00000072,-0.00000048,0.00000238,0.
 00000144,-0.00000453,-0.00000154,-0.00000215,0.00000673,0.00000500,-0.
 00011144,0.00004030,0.00006825,0.00000860,0.00000086,-0.00002374,-0.00
 000357,0.00005540,0.00001175,-0.00003229,-0.00004355,-0.00004064,-0.11
 183021,-0.11327511,0.03342537,0.01609124,0.01091281,-0.00576533,-0.005
 28982,-0.00401665,0.00082045,0.12380211,0.12273829,-0.00000803,0.00012
 139,0.00009061,-0.00016019,-0.00008741,0.00007540,0.00004409,0.0000153
 2,-0.00000093,0.00008792,0.00006626,-0.00009041,-0.00004333,-0.0000447
 1,0.00004647,0.00000055,-0.00000289,0.00001107,-0.00001984,0.00001100,
 -0.00000675,0.00000579,-0.00000189,-0.00000023,0.00069390,-0.00072069,
 0.00073120,-0.00016326,0.00037932,-0.00053947,-0.00145005,-0.00438103,
 -0.00087499,-0.00062950,-0.00042976,-0.00043254,-0.01557267,-0.0070145
 4,0.00464682,-0.00011942,0.00029279,0.00027490,0.00005007,-0.00001141,
 0.00009843,-0.00012541,-0.00014109,0.00000024,0.00029733,-0.00039509,-
 0.00034153,-0.00000580,-0.00001942,0.00000435,-0.00021210,0.00084447,0
 .00049075,0.00000014,0.00000012,-0.00000148,-0.00000231,-0.00000123,0.
 00000094,0.00000075,0.00000022,-0.00000001,0.00000143,0.00000093,-0.00
 000145,-0.00000065,-0.00000070,0.00000075,0.,-0.00000004,0.00000016,-0
 .00000026,0.00000016,-0.00000010,0.00000008,-0.00000003,0.,0.00000014,
 -0.00000012,0.00000016,-0.00000006,0.00000009,-0.00000008,0.00001140,-
 0.00000805,0.00001145,-0.00000514,0.00000592,-0.00000603,-0.00000002,0
 .00000003,-0.00000017,0.,0.,0.00000002,0.00011350,0.00001728,-0.000033
 95,-0.00003209,0.00001991,-0.00000492,-0.00003288,0.00002977,-0.000008
 28,0.00000137,-0.00000639,0.00000273,0.,0.,-0.00000002,0.,0.,0.,0.,0.,
 0.,0.,0.,0.,0.,0.,0.,0.,0.,0.,0.,0.,0.,0.,0.,0.,0.,0.,0.,-0.00000002,-
 0.00000001,0.,0.,0.,0.,0.,0.,0.,0.,0.,0.,0.,0.,0.,-0.00000012,-0.00000
 001,-0.00000009,0.,0.,0.00000002,0.,-0.00000004,-0.00000002,-0.0000000
 2,0.00000005,0.00000004,-0.00000103,0.,0.00000069,0.00000005,0.0000000
 4,-0.00000014,0.00000009,0.00000033,0.00000010,-0.00000015,-0.00000045
 ,-0.00000033,-0.00000871,-0.00000027,-0.00000505,0.00000030,-0.0000001
 8,0.00000131,0.00000079,-0.00000245,-0.00000095,-0.00000112,0.00000359
 ,0.00000278,-0.00005960,0.00002282,0.00003329,0.00000228,0.00000080,-0
 .00001411,-0.00000143,0.00003082,0.00000670,-0.00001774,-0.00002137,-0
 .00002000,0.06064172,0.03494300,-0.06629516,-0.00452633,-0.00301706,0.
 00024050,0.02610347,0.01432682,-0.00534481,-0.06485804,-0.03482460,0.0
 6725079,0.00035678,0.00002446,0.00017751,-0.00073734,0.00045677,0.0012
 7390,-0.00191284,-0.00003667,0.00014276,0.00442242,0.00269698,-0.02464
 940,-0.00288621,0.00485965,-0.00004335,-0.05068245,0.00201380,-0.00715
 987,-0.00880437,-0.01400737,0.03086765,-0.00452541,0.00045139,0.001518
 08,0.00008528,-0.00001561,0.00003050,0.00000074,-0.00003045,0.00001653
 ,0.00001231,0.00000861,-0.00000480,0.00000440,0.00000032,-0.00000195,0
 .00000629,0.00000020,0.00000075,0.00000124,0.00000108,0.00000196,-0.00
 000005,-0.00000084,0.00000058,0.00000037,-0.00000081,0.00000006,0.0000
 0001,0.00000005,0.00000006,0.00005121,0.00001830,-0.00005191,-0.000001
 45,-0.00000104,0.00000048,0.00036697,-0.00070875,-0.00063810,-0.000104
 13,0.00010198,-0.00007802,-0.00009583,-0.00004564,0.00000564,0.0000996
 8,0.00008877,-0.00008645,-0.00003218,-0.00004719,0.00004163,0.00000326
 ,0.00000316,0.00001228,-0.00002003,0.00001162,-0.00000869,0.00000677,-
 0.00000216,0.00000029,0.00001320,-0.00000856,0.00001353,-0.00000559,0.
 00000620,-0.00000668,0.00311330,-0.00422751,0.00452132,0.00028252,0.00
 280639,-0.00212259,0.00005570,0.00015349,-0.00018347,-0.00000143,-0.00
 000001,0.00000189,0.00000010,0.00000039,-0.00000071,0.,0.00000003,0.00
 000002,0.00000005,-0.00000002,-0.00000002,0.00000009,-0.00000005,0.000
 00005,0.00000019,0.00000014,-0.00000165,0.00000005,0.00000006,-0.00000
 022,0.00000074,0.00000023,0.00000002,0.00000165,0.00000090,-0.00000145
 ,-0.00000022,0.00000002,0.00000015,0.00000003,0.,-0.00000002,-0.000000
 07,0.00000004,-0.00000001,-0.00000011,0.00000005,0.,-0.00000064,-0.000
 00060,0.00000084,-0.00000268,-0.00000122,0.00000058,-0.00000109,0.0000
 0008,0.00000056,0.,0.00000004,-0.00000016,0.00000011,0.00000033,0.0000
 0012,-0.00000016,-0.00000050,-0.00000035,-0.00001134,0.00000025,-0.000
 00696,0.00000094,-0.00000047,0.00000130,0.00000095,-0.00000208,-0.0000
 0045,-0.00000114,0.00000464,0.00000299,-0.00024946,-0.00002223,0.00009
 375,0.00000454,0.00000677,-0.00002037,0.00001845,0.00006489,0.00003614
 ,-0.00001974,-0.00009350,-0.00005932,0.00114784,0.00031333,-0.00194973
 ,0.00082263,-0.00035467,-0.00014220,0.00028034,0.00003389,-0.00021720,
 0.00001051,-0.00029167,0.00045232,-0.00006999,-0.00001792,-0.00000564,
 -0.00000746,-0.00001609,0.00001494,-0.00003337,0.00002546,0.00000381,0
 .00000356,-0.00006070,-0.00003367,0.00000062,-0.00000041,0.00000054,0.
 00000052,0.00000018,-0.00000001,0.00000011,0.00000012,0.00000028,-0.00
 000003,0.00000012,0.00000013,0.05903036,-0.00016959,-0.00041144,-0.000
 51409,-0.00097081,0.00050700,-0.00094442,0.00010425,0.00035054,0.00015
 808,-0.00148195,-0.00506868,0.02024641,0.00306015,-0.00339652,-0.00005
 081,0.00067472,-0.05635101,0.05761796,-0.00581952,-0.00815056,0.017250
 70,-0.00221578,-0.00016707,0.00153300,-0.00005965,0.00005770,-0.000064
 57,0.00001102,-0.00000353,0.00000673,-0.00002335,-0.00002057,0.0000164
 0,0.00000465,-0.00000234,0.00000245,-0.00000294,0.00000352,-0.00000236
 ,0.00000094,-0.00000317,-0.00000077,-0.00000103,0.00000083,-0.00000045
 ,-0.00000185,0.00000084,0.00000003,0.00000020,0.00000006,-0.00000019,-
 0.00015423,0.00002544,0.00002303,-0.00000004,-0.00000013,0.00000028,-0
 .00005925,-0.00023560,0.00015228,-0.00011177,-0.00006702,0.00001624,0.
 00006278,0.00003714,-0.00001797,0.00013235,0.00007112,-0.00009055,-0.0
 0006402,-0.00005698,0.00005817,0.00000433,0.00000327,0.00000904,-0.000
 02457,0.00001271,-0.00000967,0.00000839,-0.00000254,0.00000023,0.00001
 527,-0.00000935,0.00001482,-0.00000705,0.00000725,-0.00000796,0.002352
 80,-0.00062643,0.00130861,-0.00026238,0.00050986,-0.00088732,-0.000018
 56,0.00002186,-0.00009891,-0.00000097,-0.00000013,0.00000212,0.0000000
 7,-0.00000031,0.00000065,-0.00000005,0.00000005,-0.00000005,-0.0000000
 8,0.00000013,0.00000001,-0.00000013,0.00000002,0.,0.00000025,0.0000000
 9,-0.00000182,0.00000002,0.00000008,-0.00000025,0.00000095,0.00000032,
 -0.00000005,0.00000212,0.00000130,-0.00000193,-0.00000031,0.,0.0000002
 2,0.00000004,0.,-0.00000002,-0.00000009,0.00000003,-0.00000002,-0.0000
 0012,0.00000007,0.,-0.00000094,-0.00000097,0.00000110,-0.00000322,-0.0
 0000182,0.00000106,-0.00000137,0.00000009,0.00000075,0.00000004,0.0000
 0003,-0.00000020,0.00000016,0.00000041,0.00000014,-0.00000022,-0.00000
 061,-0.00000041,-0.00001107,-0.00000057,-0.00000678,0.00000075,-0.0000
 0057,0.00000144,0.00000081,-0.00000300,-0.00000114,-0.00000160,0.00000
 469,0.00000337,-0.00003747,0.00004101,0.00004232,0.00000027,-0.0000050
 1,-0.00002385,0.00002154,0.00004174,0.00001553,-0.00000897,-0.00002338
 ,-0.00002233,-0.00084197,0.00411977,-0.02995278,-0.00026457,-0.0047364
 4,-0.00333130,-0.00016219,0.00100526,0.00082406,0.00034624,0.00115195,
 0.00065536,0.00011405,-0.00003292,0.00003877,0.00000963,0.00001310,-0.
 00000452,0.00002020,-0.00002523,-0.00001907,-0.00000371,0.00004939,0.0
 0002812,-0.00000127,-0.00000021,0.00000069,0.00000027,0.,-0.00000027,0
 .00000003,-0.00000019,-0.00000020,-0.00000021,-0.00000041,-0.00000036,
 0.00583959,0.07136599,-0.00034793,0.00030808,0.00050412,0.00096515,-0.
 00038184,0.00084421,-0.00060404,-0.00011976,-0.00016906,0.00112839,0.0
 0091456,-0.00404357,-0.00087917,-0.00027843,0.00028520,-0.00062825,0.0
 5996770,-0.30134244,0.00547387,0.00542551,-0.00303538,0.00084000,-0.00
 122877,-0.00061352,-0.00009040,-0.00002747,0.00000084,0.00007396,0.000
 01251,-0.00001160,0.00006200,0.00001138,0.00000440,-0.00001269,0.00000
 671,-0.00000543,-0.00001091,-0.00001380,0.00000716,-0.00000928,0.00000
 971,-0.00000072,0.00000732,-0.00000409,0.00000173,0.00000759,-0.000002
 62,-0.00000084,-0.00000099,-0.00000027,0.00000057,0.00017969,-0.000101
 74,0.00004746,0.00000189,0.00000200,-0.00000102,0.00020269,-0.00013360
 ,-0.00029929,0.00006355,0.00006629,-0.00002720,-0.00003317,-0.00004255
 ,0.00000946,-0.00006853,-0.00005299,0.00006123,0.00003661,0.00002772,-
 0.00003187,-0.00000065,0.00000031,-0.00000873,0.00001567,-0.00000789,0
 .00000617,-0.00000496,0.00000132,-0.00000020,-0.00000913,0.00000614,-0
 .00000854,0.00000414,-0.00000473,0.00000514,-0.00258997,0.00231043,-0.
 00069473,-0.00033952,-0.00159773,0.00073827,0.00005201,0.00002061,0.00
 005056,0.00000031,0.00000028,-0.00000103,-0.00000101,0.00000126,-0.000
 00085,0.00000032,-0.00000028,0.00000025,0.00000041,-0.00000041,0.00000
 005,0.00000058,-0.00000019,-0.00000005,-0.00000020,-0.00000002,0.00000
 078,-0.00000005,-0.00000004,0.00000016,-0.00000056,-0.00000017,-0.0000
 0001,-0.00000136,-0.00000075,0.00000117,0.00000020,0.,-0.00000014,-0.0
 0000002,-0.00000001,0.00000001,0.00000005,-0.00000002,0.00000001,0.000
 00007,-0.00000004,0.,0.00000063,0.00000057,-0.00000059,0.00000197,0.00
 000096,-0.00000073,0.00000082,-0.00000008,-0.00000043,-0.00000003,-0.0
 0000002,0.00000014,-0.00000006,-0.00000026,-0.00000009,0.00000014,0.00
 000037,0.00000026,0.00000615,0.00000062,0.00000357,-0.00000049,0.00000
 029,-0.00000081,-0.00000082,0.00000157,0.00000048,0.00000084,-0.000002
 84,-0.00000187,-0.00002910,-0.00004029,-0.00002380,-0.00000859,-0.0000
 0029,0.00001243,0.00000008,-0.00002979,-0.00000326,0.00001433,-0.00000
 630,0.00000280,-0.00131432,0.00156832,-0.01792282,-0.00036065,-0.00311
 268,-0.00038631,-0.00032762,0.00006524,0.00044860,0.00032871,0.0004254
 5,0.00075123,-0.00002648,0.00004423,-0.00002987,-0.00000689,-0.0000071
 0,-0.00000965,0.00000162,-0.00001161,0.00000494,-0.00000927,-0.0000172
 6,-0.00000441,0.00000510,0.00000071,-0.00000311,-0.00000071,-0.0000013
 8,-0.00000048,-0.00000016,-0.00000048,0.00000083,0.00000157,0.00000249
 ,0.00000131,-0.00176049,-0.06397278,0.32488889\\-0.00000366,-0.0000037
 0,-0.00000903,-0.00000526,-0.00000046,0.00001295,0.00000243,0.00000647
 ,0.00000455,-0.00000600,-0.00001320,-0.00002643,0.00000383,0.00000162,
 0.00000234,0.00000281,0.00000359,0.00000503,0.00000445,-0.00000036,0.0
 0000138,-0.00000336,-0.00000232,-0.00000309,-0.00000215,0.00000191,0.0
 0001238,0.00000351,0.00000465,-0.00000166,0.00000468,-0.00000050,0.000
 00607,-0.00000321,-0.00000458,-0.00000770,0.00000512,0.00000069,0.0000
 0472,-0.00001456,0.00000218,-0.00000785,0.00000355,-0.00000693,-0.0000
 0304,0.00000696,0.00001007,-0.00000311,-0.00000167,-0.00000212,0.00000
 297,0.00000326,-0.00000141,-0.00000275,0.00000093,0.00000476,0.0000029
 8,-0.00000278,-0.00000233,-0.00000568,-0.00000102,-0.00000474,-0.00000
 015,-0.00000009,0.00000381,0.00000217,0.00000431,0.00001382,0.00001181
 ,-0.00000146,-0.00001038,-0.00001014,-0.00000473,0.00000006,0.00000014
 ,0.00000383,-0.00000393,-0.00000781,-0.00000220,-0.00000167,-0.0000002
 5,-0.00000020,-0.00000558,0.00000145,0.00000029,0.00000713,0.00000665,
 -0.00000080,-0.00000438,0.00000372,0.00000224,0.00000623,0.00000380,0.
 00000088,-0.00000337,-0.00000326,0.00000013,0.00000332,0.00000319,-0.0
 0000688,-0.00000351,0.00000307,0.00000308,-0.00000134,-0.00000434,0.00
 000096,0.00000461,-0.00000927,0.00000312,0.00000382,-0.00000116,-0.000
 00019,-0.00000059,-0.00000105,0.00000035,-0.00000410,-0.00000368,-0.00
 000149,0.00000416,0.00000260,0.00000159,0.00000097,-0.00000467,0.00000
 111,0.00000160,0.00000316,0.00000095,0.00000333,0.00000524,0.00000016,
 0.00000146,-0.00000133,-0.00000037,-0.00000382,0.00000389,-0.00000043,
 -0.00000641,-0.00000232,-0.00000194,0.00000126,0.00000140,0.00000131,0
 .00000334,-0.00000804,0.00000007,0.00000724,-0.00000697,-0.00000031,0.
 00000162,-0.00001015,-0.00000011,0.00000240,-0.00001021,0.00000182,-0.
 00000372,0.00000887,0.00000007,-0.00000746,0.00000699,-0.00000056,-0.0
 0000241,0.00001047,-0.00000003,-0.00000278,0.00001029,0.00000062,0.000
 00397,-0.00000649,-0.00000012,0.00000698,-0.00000665,-0.00000040,0.000
 00150,-0.00001011,0.,0.00000180,-0.00001028,0.00000043,-0.00000436,0.0
 0000902,-0.00000036,-0.00000720,0.00000732,-0.00000007,-0.00000176,0.0
 0001014,-0.00000032,-0.00000160,0.00001085,-0.00000136,0.00000154,-0.0
 0000623,-0.00000001,0.00000764,-0.00000647,0.00000067,0.00000299,-0.00
 000977,0.00000063,0.00000242,-0.00001077,-0.00000104,-0.00000433,0.000
 00605,-0.00000017,-0.00000252,0.00001092,-0.00000015,-0.00000705,0.000
 00727,0.00000024,-0.00000214,0.00001047,-0.00000093,0.00000413,0.00000
 561\\\@


 IT IS A SIMPLE TASK TO MAKE THINGS COMPLEX,
 BUT A COMPLEX TASK TO MAKE THEM SIMPLE.
 Job cpu time:       1 days  4 hours  8 minutes 41.5 seconds.
 Elapsed time:       0 days  1 hours 10 minutes 28.3 seconds.
 File lengths (MBytes):  RWF=   4756 Int=      0 D2E=      0 Chk=     81 Scr=      1
 Normal termination of Gaussian 16 at Mon Feb  7 18:28:26 2022.
