 Entering Gaussian System, Link 0=g16
 Input=input.com
 Output=input.log
 Initial command:
 /share/apps/g16.b01_avx2/g16/l1.exe "/scratch/Gau-640148.inp" -scrdir="/scratch/"
 Entering Link 1 = /share/apps/g16.b01_avx2/g16/l1.exe PID=    640150.
  
 Copyright (c) 1988-2017, Gaussian, Inc.  All Rights Reserved.
  
 This is part of the Gaussian(R) 16 program.  It is based on
 the Gaussian(R) 09 system (copyright 2009, Gaussian, Inc.),
 the Gaussian(R) 03 system (copyright 2003, Gaussian, Inc.),
 the Gaussian(R) 98 system (copyright 1998, Gaussian, Inc.),
 the Gaussian(R) 94 system (copyright 1995, Gaussian, Inc.),
 the Gaussian 92(TM) system (copyright 1992, Gaussian, Inc.),
 the Gaussian 90(TM) system (copyright 1990, Gaussian, Inc.),
 the Gaussian 88(TM) system (copyright 1988, Gaussian, Inc.),
 the Gaussian 86(TM) system (copyright 1986, Carnegie Mellon
 University), and the Gaussian 82(TM) system (copyright 1983,
 Carnegie Mellon University). Gaussian is a federally registered
 trademark of Gaussian, Inc.
  
 This software contains proprietary and confidential information,
 including trade secrets, belonging to Gaussian, Inc.
  
 This software is provided under written license and may be
 used, copied, transmitted, or stored only in accord with that
 written license.
  
 The following legend is applicable only to US Government
 contracts under FAR:
  
                    RESTRICTED RIGHTS LEGEND
  
 Use, reproduction and disclosure by the US Government is
 subject to restrictions as set forth in subparagraphs (a)
 and (c) of the Commercial Computer Software - Restricted
 Rights clause in FAR 52.227-19.
  
 Gaussian, Inc.
 340 Quinnipiac St., Bldg. 40, Wallingford CT 06492
  
  
 ---------------------------------------------------------------
 Warning -- This program may not be used in any manner that
 competes with the business of Gaussian, Inc. or will provide
 assistance to any competitor of Gaussian, Inc.  The licensee
 of this program is prohibited from giving any competitor of
 Gaussian, Inc. access to this program.  By using this program,
 the user acknowledges that Gaussian, Inc. is engaged in the
 business of creating and licensing software in the field of
 computational chemistry and represents and warrants to the
 licensee that it is not a competitor of Gaussian, Inc. and that
 it will not use this program in any manner prohibited above.
 ---------------------------------------------------------------
  

 Cite this work as:
 Gaussian 16, Revision B.01,
 M. J. Frisch, G. W. Trucks, H. B. Schlegel, G. E. Scuseria, 
 M. A. Robb, J. R. Cheeseman, G. Scalmani, V. Barone, 
 G. A. Petersson, H. Nakatsuji, X. Li, M. Caricato, A. V. Marenich, 
 J. Bloino, B. G. Janesko, R. Gomperts, B. Mennucci, H. P. Hratchian, 
 J. V. Ortiz, A. F. Izmaylov, J. L. Sonnenberg, D. Williams-Young, 
 F. Ding, F. Lipparini, F. Egidi, J. Goings, B. Peng, A. Petrone, 
 T. Henderson, D. Ranasinghe, V. G. Zakrzewski, J. Gao, N. Rega, 
 G. Zheng, W. Liang, M. Hada, M. Ehara, K. Toyota, R. Fukuda, 
 J. Hasegawa, M. Ishida, T. Nakajima, Y. Honda, O. Kitao, H. Nakai, 
 T. Vreven, K. Throssell, J. A. Montgomery, Jr., J. E. Peralta, 
 F. Ogliaro, M. J. Bearpark, J. J. Heyd, E. N. Brothers, K. N. Kudin, 
 V. N. Staroverov, T. A. Keith, R. Kobayashi, J. Normand, 
 K. Raghavachari, A. P. Rendell, J. C. Burant, S. S. Iyengar, 
 J. Tomasi, M. Cossi, J. M. Millam, M. Klene, C. Adamo, R. Cammi, 
 J. W. Ochterski, R. L. Martin, K. Morokuma, O. Farkas, 
 J. B. Foresman, and D. J. Fox, Gaussian, Inc., Wallingford CT, 2016.
 
 ******************************************
 Gaussian 16:  ES64L-G16RevB.01 20-Dec-2017
                30-Jan-2022 
 ******************************************
 %nproc=24
 Will use up to   24 processors via shared memory.
 %mem=64GB
 ----------------------------------------------------------------------
 #P PBE1PBE/6-31+G(d,p) opt freq int=(grid=99590) scrf=(cpcm, solvent=w
 ater) EmpiricalDispersion=GD3
 ----------------------------------------------------------------------
 1/18=20,19=15,26=6,38=1/1,3;
 2/9=110,12=2,17=6,18=5,40=1/2;
 3/5=1,6=6,7=111,11=2,25=1,30=1,70=2101,71=1,72=1,74=-13,75=99590,124=31/1,2,3;
 4//1;
 5/5=2,38=5,53=1/2;
 6/7=2,8=2,9=2,10=2,28=1/1;
 7//1,2,3,16;
 1/18=20,19=15,26=6/3(2);
 2/9=110/2;
 99//99;
 2/9=110/2;
 3/5=1,6=6,7=111,11=2,25=1,30=1,70=2105,71=1,72=1,74=-13,75=99590,124=31/1,2,3;
 4/5=5,16=3,69=1/1;
 5/5=2,38=5,53=1/2;
 7//1,2,3,16;
 1/18=20,19=15,26=6/3(-5);
 2/9=110/2;
 6/7=2,8=2,9=2,10=2,19=2,28=1/1;
 99/9=1/99;
 Leave Link    1 at Sun Jan 30 19:23:15 2022, MaxMem=  8589934592 cpu:               0.9 elap:               0.0
 (Enter /share/apps/g16.b01_avx2/g16/l101.exe)
 -------
 solv sp
 -------
 Symbolic Z-matrix:
 Charge =  0 Multiplicity = 1
 O                     11.35812  -0.95645   2.45022 
 H                     10.50142  -0.567     2.71198 
 H                     11.10752  -1.60888   1.76245 
 O                     8.80237   0.27108   2.51127 
 H                     12.0793   0.46304   1.63358 
 H                     13.27553  -1.58018   2.67358 
 O                     10.32071  -2.46831   0.3899 
 C                     7.67283   0.14752   2.00299 
 H                     9.83023   1.90582   2.76935 
 O                     12.43717   1.33692   1.34963 
 O                     14.11712  -1.79524   2.23534 
 C                     9.17371  -2.02862   0.18443 
 H                     12.22082  -2.92329   0.01805 
 C                     6.67304   1.31681   2.07438 
 N                     7.25206  -0.99294   1.42087 
 O                     10.3828   2.7002    2.66219 
 H                     13.40416   1.26791   1.52404 
 H                     11.21345   2.37178   2.25332 
 H                     12.44559   1.80363  -0.37141 
 H                     13.83899  -2.27222   1.39981 
 H                     14.77429  -0.40297   1.82429 
 C                     8.11832  -2.15712   1.30306 
 N                     8.78182  -1.49483  -0.98793 
 O                     13.19065  -2.91466  -0.005 
 C                     5.90036   1.25581   3.3985 
 N                     5.74504   1.33623   0.94812 
 H                     7.29367   2.21899   2.04734 
 H                     6.27232  -1.08981   1.15329 
 H                     9.554     3.58916   1.38495 
 O                     15.04973   0.53361   1.55428 
 O                     12.65858   2.1523   -1.26959 
 C                     7.28611  -3.42676   1.07376 
 H                     8.69939  -2.26359   2.22387 
 C                     9.67539  -1.45093  -2.1448 
 H                     7.79605  -1.25906  -1.12011 
 H                     13.42764  -2.38048  -0.81465 
 H                     5.27336   0.35883   3.44255 
 H                     5.25604   2.13475   3.4992 
 H                     6.60538   1.24087   4.23417 
 C                     6.18754   1.58112  -0.30243 
 H                     4.74743   1.20736   1.12638 
 O                     9.06701   3.97731   0.61861 
 H                     15.24975   0.6771   -0.30602 
 H                     15.76699   0.79846   2.14311 
 H                     12.22905   1.55303  -1.90796 
 H                     11.73073   3.96251  -1.20804 
 H                     14.39813   1.43838  -1.34632 
 H                     6.5991   -3.5833    1.91071 
 H                     6.69358  -3.34442   0.15707 
 H                     7.95108  -4.29155   0.99148 
 C                     8.99178  -2.06743  -3.37745 
 C                     10.19758  -0.04638  -2.51376 
 H                     10.56146  -2.03156  -1.88556 
 O                     13.74219  -1.4012   -2.14552 
 C                     5.1507    1.58877  -1.44065 
 O                     7.38069   1.81597  -0.5528 
 H                     8.6159    3.23094   0.1925 
 H                     10.43667   4.54097  -0.56227 
 O                     15.12619   0.78462  -1.27066 
 O                     11.36462   0.06595  -2.94157 
 O                     11.10362   4.70535  -1.26044 
 H                     8.05558  -1.54723  -3.60666 
 H                     8.76858  -3.12379  -3.19459 
 H                     9.65593  -1.9951   -4.24414 
 N                     9.32589   0.9738   -2.47477 
 H                     12.95199  -0.98193  -2.53255 
 H                     14.32756  -0.64833  -1.87156 
 C                     4.35623   2.90003  -1.43445 
 N                     4.24996   0.44452  -1.37156 
 H                     5.75354   1.5218   -2.35273 
 C                     9.63773   2.30191  -3.00265 
 H                     8.48916   0.90984  -1.89785 
 H                     3.75309   2.98373  -0.52498 
 H                     3.68679   2.94157  -2.29982 
 H                     5.04521   3.74841  -1.48163 
 C                     4.72811  -0.81432  -1.44737 
 H                     3.24672   0.6136   -1.28432 
 H                     10.01052   2.99607  -2.24262 
 H                     8.72727   2.72178  -3.44291 
 H                     10.39922   2.20025  -3.77893 
 C                     3.70043  -1.95586  -1.32223 
 O                     5.93044  -1.06797  -1.62264 
 C                     2.9461   -2.15848  -2.6415 
 N                     2.76078  -1.72073  -0.23144 
 H                     4.30621  -2.84042  -1.09719 
 H                     2.34419  -1.27718  -2.88502 
 H                     2.27841  -3.02311  -2.56817 
 H                     3.65955  -2.33505  -3.45207 
 C                     3.20467  -1.59487   1.03852 
 H                     1.76447  -1.65058  -0.44253 
 C                     2.15101  -1.29731   2.12324 
 O                     4.39813  -1.72478   1.34655 
 C                     1.38012  -2.56786   2.49992 
 N                     1.22558  -0.24962   1.7074 
 H                     2.73967  -0.94625   2.97762 
 H                     0.79396  -2.93238   1.6503 
 H                     0.69566  -2.36448   3.3299 
 H                     2.08205  -3.34868   2.80766 
 C                     1.67335   0.99285   1.4252 
 H                     0.23031  -0.46712   1.64678 
 C                     0.62895   2.01888   0.94411 
 O                     2.86025   1.32478   1.55512 
 C                    -0.15635   2.58985   2.13059 
 N                    -0.28421   1.44965  -0.04131 
 H                     1.22516   2.80848   0.47437 
 H                    -0.75043   1.80871   2.61603 
 H                    -0.83427   3.38071   1.79327 
 H                     0.53761   3.01345   2.86266 
 C                     0.17908   0.97273  -1.21718 
 H                    -1.28289   1.42783   0.16754 
 C                    -0.85597   0.35631  -2.17823 
 O                     1.37365   1.03077  -1.54235 
 C                    -1.64098   1.45101  -2.9106 
 N                    -1.7714   -0.54459  -1.48675 
 H                    -0.25235  -0.21451  -2.89198 
 H                    -2.24029   2.03675  -2.2062 
 H                    -2.31407   1.00516  -3.65013 
 H                    -0.94743   2.1207   -3.42785 
 C                    -1.30977  -1.64285  -0.85078 
 H                    -2.7709   -0.33977  -1.50503 
 C                    -2.34871  -2.50855  -0.11077 
 O                    -0.11483  -1.97196  -0.85795 
 C                    -3.10871  -3.40603  -1.09424 
 N                    -3.28358  -1.69774   0.66177 
 H                    -1.74972  -3.12166   0.57117 
 H                    -3.70629  -2.80489  -1.78718 
 H                    -3.78037  -4.08022  -0.55272 
 H                    -2.39881  -4.00774  -1.66946 
 C                    -2.84302  -0.89838   1.65776 
 H                    -4.27879  -1.74993   0.44333 
 C                    -3.89856  -0.04447   2.38734 
 O                    -1.65376  -0.84718   2.00203 
 C                    -4.67086  -0.88739   3.40878 
 N                    -4.82198   0.59403   1.45616 
 H                    -3.31166   0.72398   2.9017 
 H                    -5.25983  -1.66238   2.90771 
 H                    -5.35191  -0.25404   3.98673 
 H                    -3.96959  -1.36618   4.09865 
 C                    -4.3714    1.46741   0.52879 
 H                    -5.81561   0.37311   1.5172 
 C                    -5.41482   2.05527  -0.44117 
 O                    -3.18346   1.81037   0.45105 
 C                    -6.20418   3.18554   0.22968 
 N                    -6.32516   1.0343   -0.94803 
 H                    -4.81792   2.45362  -1.26846 
 H                    -6.79572   2.80178   1.06732 
 H                    -6.88441   3.65318  -0.48962 
 H                    -5.51364   3.94708   0.60392 
 C                    -5.85805  -0.01276  -1.66322 
 H                    -7.32283   1.12739  -0.75941 
 C                    -6.88934  -1.06215  -2.12145 
 O                    -4.66376  -0.13753  -1.96771 
 C                    -7.65348  -0.57089  -3.35611 
 N                    -7.82048  -1.41503  -1.05422 
 H                    -6.2837   -1.93749  -2.37981 
 H                    -8.25997   0.30797  -3.1146 
 H                    -8.31769  -1.35661  -3.73019 
 H                    -6.94531  -0.30568  -4.14665 
 C                    -7.36976  -1.97208   0.09069 
 H                    -8.81986  -1.2717   -1.20588 
 C                    -8.41782  -2.29978   1.17306 
 O                    -6.17531  -2.23749   0.28456 
 C                    -9.17428  -3.58666   0.82266 
 N                    -9.35817  -1.20118   1.37381 
 H                    -7.82452  -2.44745   2.08203 
 H                    -9.78468  -3.44903  -0.07599 
 H                    -9.82962  -3.8823    1.64917 
 H                    -8.46247  -4.39789   0.6442 
 C                    -8.92138   0.02282   1.74261 
 H                    -10.35978  -1.38261   1.27525 
 C                    -9.98196   1.13946   1.84934 
 O                    -7.73392   0.27009   1.99082 
 O                    -12.26139  -1.85258   1.58929 
 C                    -10.7531   1.04363   3.17032 
 N                    -10.89678   1.14115   0.71101 
 H                    -9.39325   2.06213   1.83189 
 H                    -12.90227  -1.10181   1.56522 
 H                    -12.54444  -2.43977   2.30095 
 H                    -11.35494   0.13024   3.21055 
 H                    -11.41512   1.90933   3.28655 
 H                    -10.04837   1.03669   4.00699 
 C                    -10.42014   1.37918  -0.53384 
 H                    -11.88039   0.90087   0.8574 
 O                    -13.72284   0.41649   1.39414 
 C                    -11.42629   1.34686  -1.69987 
 O                    -9.23432   1.65765  -0.75199 
 H                    -14.09798   0.88083   2.17045 
 H                    -14.34824   0.52694   0.63821 
 C                    -12.20786   2.66503  -1.77032 
 N                    -12.3452   0.21755  -1.64448 
 H                    -10.79134   1.24901  -2.58676 
 O                    -14.70517   1.77109   3.62333 
 O                    -15.16092   0.71691  -0.89087 
 H                    -12.81605   2.69652  -2.68124 
 H                    -12.86722   2.78181  -0.90298 
 H                    -11.51159   3.50819  -1.79406 
 C                    -11.88443  -1.05845  -1.71662 
 H                    -13.34623   0.39167  -1.53689 
 H                    -14.15098   2.45476   4.02377 
 H                    -15.11361   1.29915   4.36179 
 H                    -15.79305   0.03343  -1.1979 
 H                    -15.54901   1.59243  -1.10351 
 C                    -12.9264  -2.15861  -1.69756 
 O                    -10.67284  -1.31245  -1.77586 
 O                    -16.7516  -1.33075  -1.84365 
 O                    -16.19196   3.2015   -1.51823 
 H                    -13.94737  -1.78888  -1.83062 
 H                    -12.85173  -2.66653  -0.73019 
 H                    -12.68762  -2.87866  -2.48537 
 H                    -17.03708  -1.42054  -2.76257 
 H                    -17.29851  -1.93914  -1.32931 
 H                    -15.83912   3.73595  -2.24221 
 H                    -16.53057   3.82644  -0.86324 
 
 Add virtual bond connecting atoms H21        and O11        Dist= 3.01D+00.
 Add virtual bond connecting atoms O24        and H20        Dist= 3.17D+00.
 Add virtual bond connecting atoms O54        and H36        Dist= 3.18D+00.
 Add virtual bond connecting atoms O184       and H177       Dist= 3.28D+00.
 Add virtual bond connecting atoms O193       and H188       Dist= 3.29D+00.
 Add virtual bond connecting atoms O30        and H43        Dist= 3.55D+00.
 Add virtual bond connecting atoms H67        and O59        Dist= 3.30D+00.
 Add virtual bond connecting atoms H29        and O16        Dist= 3.33D+00.
 Add virtual bond connecting atoms O206       and H202       Dist= 3.37D+00.
 Add virtual bond connecting atoms H19        and O10        Dist= 3.37D+00.
 Add virtual bond connecting atoms O205       and H201       Dist= 3.38D+00.
 Add virtual bond connecting atoms H5         and O1         Dist= 3.38D+00.
 Add virtual bond connecting atoms O4         and H2         Dist= 3.60D+00.
 Add virtual bond connecting atoms O7         and H3         Dist= 3.40D+00.
 Add virtual bond connecting atoms O30        and H17        Dist= 3.41D+00.
 Add virtual bond connecting atoms H47        and O31        Dist= 3.56D+00.
 Add virtual bond connecting atoms H66        and O60        Dist= 3.68D+00.
 Add virtual bond connecting atoms O192       and H187       Dist= 3.42D+00.
 Add virtual bond connecting atoms H9         and O4         Dist= 3.68D+00.
 Add virtual bond connecting atoms H18        and O10        Dist= 3.48D+00.
 Add virtual bond connecting atoms H46        and O31        Dist= 3.85D+00.
 Add virtual bond connecting atoms H58        and O42        Dist= 3.58D+00.
 Add virtual bond connecting atoms H170       and O173       Dist= 3.75D+00.
 Add virtual bond connecting atoms H183       and O184       Dist= 3.74D+00.
 Add virtual bond connecting atoms H198       and O193       Dist= 3.69D+00.
 ITRead=  0  0  0  0  0  0  0  0  0  0  0  0  0  0  0  0  0  0  0  0
 ITRead=  0  0  0  0  0  0  0  0  0  0  0  0  0  0  0  0  0  0  0  0
 ITRead=  0  0  0  0  0  0  0  0  0  0  0  0  0  0  0  0  0  0  0  0
 ITRead=  0  0  0  0  0  0  0  0  0  0  0  0  0  0  0  0  0  0  0  0
 ITRead=  0  0  0  0  0  0  0  0  0  0  0  0  0  0  0  0  0  0  0  0
 ITRead=  0  0  0  0  0  0  0  0  0  0  0  0  0  0  0  0  0  0  0  0
 ITRead=  0  0  0  0  0  0  0  0  0  0  0  0  0  0  0  0  0  0  0  0
 ITRead=  0  0  0  0  0  0  0  0  0  0  0  0  0  0  0  0  0  0  0  0
 ITRead=  0  0  0  0  0  0  0  0  0  0  0  0  0  0  0  0  0  0  0  0
 ITRead=  0  0  0  0  0  0  0  0  0  0  0  0  0  0  0  0  0  0  0  0
 ITRead=  0  0  0  0  0  0  0  0  0  0  0  0  0
 MicOpt= -1 -1 -1 -1 -1 -1 -1 -1 -1 -1 -1 -1 -1 -1 -1 -1 -1 -1 -1 -1
 MicOpt= -1 -1 -1 -1 -1 -1 -1 -1 -1 -1 -1 -1 -1 -1 -1 -1 -1 -1 -1 -1
 MicOpt= -1 -1 -1 -1 -1 -1 -1 -1 -1 -1 -1 -1 -1 -1 -1 -1 -1 -1 -1 -1
 MicOpt= -1 -1 -1 -1 -1 -1 -1 -1 -1 -1 -1 -1 -1 -1 -1 -1 -1 -1 -1 -1
 MicOpt= -1 -1 -1 -1 -1 -1 -1 -1 -1 -1 -1 -1 -1 -1 -1 -1 -1 -1 -1 -1
 MicOpt= -1 -1 -1 -1 -1 -1 -1 -1 -1 -1 -1 -1 -1 -1 -1 -1 -1 -1 -1 -1
 MicOpt= -1 -1 -1 -1 -1 -1 -1 -1 -1 -1 -1 -1 -1 -1 -1 -1 -1 -1 -1 -1
 MicOpt= -1 -1 -1 -1 -1 -1 -1 -1 -1 -1 -1 -1 -1 -1 -1 -1 -1 -1 -1 -1
 MicOpt= -1 -1 -1 -1 -1 -1 -1 -1 -1 -1 -1 -1 -1 -1 -1 -1 -1 -1 -1 -1
 MicOpt= -1 -1 -1 -1 -1 -1 -1 -1 -1 -1 -1 -1 -1 -1 -1 -1 -1 -1 -1 -1
 MicOpt= -1 -1 -1 -1 -1 -1 -1 -1 -1 -1 -1 -1 -1
 NAtoms=    213 NQM=      213 NQMF=       0 NMMI=      0 NMMIF=      0
                NMic=       0 NMicF=      0.
                    Isotopes and Nuclear Properties:
 (Nuclear quadrupole moments (NQMom) in fm**2, nuclear magnetic moments (NMagM)
  in nuclear magnetons)

  Atom         1           2           3           4           5           6           7           8           9          10
 IAtWgt=          16           1           1          16           1           1          16          12           1          16
 AtmWgt=  15.9949146   1.0078250   1.0078250  15.9949146   1.0078250   1.0078250  15.9949146  12.0000000   1.0078250  15.9949146
 NucSpn=           0           1           1           0           1           1           0           0           1           0
 AtZEff=  -0.0000000  -0.0000000  -0.0000000  -0.0000000  -0.0000000  -0.0000000  -0.0000000  -0.0000000  -0.0000000  -0.0000000
 NQMom=    0.0000000   0.0000000   0.0000000   0.0000000   0.0000000   0.0000000   0.0000000   0.0000000   0.0000000   0.0000000
 NMagM=    0.0000000   2.7928460   2.7928460   0.0000000   2.7928460   2.7928460   0.0000000   0.0000000   2.7928460   0.0000000
 AtZNuc=   8.0000000   1.0000000   1.0000000   8.0000000   1.0000000   1.0000000   8.0000000   6.0000000   1.0000000   8.0000000

  Atom        11          12          13          14          15          16          17          18          19          20
 IAtWgt=          16          12           1          12          14          16           1           1           1           1
 AtmWgt=  15.9949146  12.0000000   1.0078250  12.0000000  14.0030740  15.9949146   1.0078250   1.0078250   1.0078250   1.0078250
 NucSpn=           0           0           1           0           2           0           1           1           1           1
 AtZEff=  -0.0000000  -0.0000000  -0.0000000  -0.0000000  -0.0000000  -0.0000000  -0.0000000  -0.0000000  -0.0000000  -0.0000000
 NQMom=    0.0000000   0.0000000   0.0000000   0.0000000   2.0440000   0.0000000   0.0000000   0.0000000   0.0000000   0.0000000
 NMagM=    0.0000000   0.0000000   2.7928460   0.0000000   0.4037610   0.0000000   2.7928460   2.7928460   2.7928460   2.7928460
 AtZNuc=   8.0000000   6.0000000   1.0000000   6.0000000   7.0000000   8.0000000   1.0000000   1.0000000   1.0000000   1.0000000

  Atom        21          22          23          24          25          26          27          28          29          30
 IAtWgt=           1          12          14          16          12          14           1           1           1          16
 AtmWgt=   1.0078250  12.0000000  14.0030740  15.9949146  12.0000000  14.0030740   1.0078250   1.0078250   1.0078250  15.9949146
 NucSpn=           1           0           2           0           0           2           1           1           1           0
 AtZEff=  -0.0000000  -0.0000000  -0.0000000  -0.0000000  -0.0000000  -0.0000000  -0.0000000  -0.0000000  -0.0000000  -0.0000000
 NQMom=    0.0000000   0.0000000   2.0440000   0.0000000   0.0000000   2.0440000   0.0000000   0.0000000   0.0000000   0.0000000
 NMagM=    2.7928460   0.0000000   0.4037610   0.0000000   0.0000000   0.4037610   2.7928460   2.7928460   2.7928460   0.0000000
 AtZNuc=   1.0000000   6.0000000   7.0000000   8.0000000   6.0000000   7.0000000   1.0000000   1.0000000   1.0000000   8.0000000

  Atom        31          32          33          34          35          36          37          38          39          40
 IAtWgt=          16          12           1          12           1           1           1           1           1          12
 AtmWgt=  15.9949146  12.0000000   1.0078250  12.0000000   1.0078250   1.0078250   1.0078250   1.0078250   1.0078250  12.0000000
 NucSpn=           0           0           1           0           1           1           1           1           1           0
 AtZEff=  -0.0000000  -0.0000000  -0.0000000  -0.0000000  -0.0000000  -0.0000000  -0.0000000  -0.0000000  -0.0000000  -0.0000000
 NQMom=    0.0000000   0.0000000   0.0000000   0.0000000   0.0000000   0.0000000   0.0000000   0.0000000   0.0000000   0.0000000
 NMagM=    0.0000000   0.0000000   2.7928460   0.0000000   2.7928460   2.7928460   2.7928460   2.7928460   2.7928460   0.0000000
 AtZNuc=   8.0000000   6.0000000   1.0000000   6.0000000   1.0000000   1.0000000   1.0000000   1.0000000   1.0000000   6.0000000

  Atom        41          42          43          44          45          46          47          48          49          50
 IAtWgt=           1          16           1           1           1           1           1           1           1           1
 AtmWgt=   1.0078250  15.9949146   1.0078250   1.0078250   1.0078250   1.0078250   1.0078250   1.0078250   1.0078250   1.0078250
 NucSpn=           1           0           1           1           1           1           1           1           1           1
 AtZEff=  -0.0000000  -0.0000000  -0.0000000  -0.0000000  -0.0000000  -0.0000000  -0.0000000  -0.0000000  -0.0000000  -0.0000000
 NQMom=    0.0000000   0.0000000   0.0000000   0.0000000   0.0000000   0.0000000   0.0000000   0.0000000   0.0000000   0.0000000
 NMagM=    2.7928460   0.0000000   2.7928460   2.7928460   2.7928460   2.7928460   2.7928460   2.7928460   2.7928460   2.7928460
 AtZNuc=   1.0000000   8.0000000   1.0000000   1.0000000   1.0000000   1.0000000   1.0000000   1.0000000   1.0000000   1.0000000

  Atom        51          52          53          54          55          56          57          58          59          60
 IAtWgt=          12          12           1          16          12          16           1           1          16          16
 AtmWgt=  12.0000000  12.0000000   1.0078250  15.9949146  12.0000000  15.9949146   1.0078250   1.0078250  15.9949146  15.9949146
 NucSpn=           0           0           1           0           0           0           1           1           0           0
 AtZEff=  -0.0000000  -0.0000000  -0.0000000  -0.0000000  -0.0000000  -0.0000000  -0.0000000  -0.0000000  -0.0000000  -0.0000000
 NQMom=    0.0000000   0.0000000   0.0000000   0.0000000   0.0000000   0.0000000   0.0000000   0.0000000   0.0000000   0.0000000
 NMagM=    0.0000000   0.0000000   2.7928460   0.0000000   0.0000000   0.0000000   2.7928460   2.7928460   0.0000000   0.0000000
 AtZNuc=   6.0000000   6.0000000   1.0000000   8.0000000   6.0000000   8.0000000   1.0000000   1.0000000   8.0000000   8.0000000

  Atom        61          62          63          64          65          66          67          68          69          70
 IAtWgt=          16           1           1           1          14           1           1          12          14           1
 AtmWgt=  15.9949146   1.0078250   1.0078250   1.0078250  14.0030740   1.0078250   1.0078250  12.0000000  14.0030740   1.0078250
 NucSpn=           0           1           1           1           2           1           1           0           2           1
 AtZEff=  -0.0000000  -0.0000000  -0.0000000  -0.0000000  -0.0000000  -0.0000000  -0.0000000  -0.0000000  -0.0000000  -0.0000000
 NQMom=    0.0000000   0.0000000   0.0000000   0.0000000   2.0440000   0.0000000   0.0000000   0.0000000   2.0440000   0.0000000
 NMagM=    0.0000000   2.7928460   2.7928460   2.7928460   0.4037610   2.7928460   2.7928460   0.0000000   0.4037610   2.7928460
 AtZNuc=   8.0000000   1.0000000   1.0000000   1.0000000   7.0000000   1.0000000   1.0000000   6.0000000   7.0000000   1.0000000

  Atom        71          72          73          74          75          76          77          78          79          80
 IAtWgt=          12           1           1           1           1          12           1           1           1           1
 AtmWgt=  12.0000000   1.0078250   1.0078250   1.0078250   1.0078250  12.0000000   1.0078250   1.0078250   1.0078250   1.0078250
 NucSpn=           0           1           1           1           1           0           1           1           1           1
 AtZEff=  -0.0000000  -0.0000000  -0.0000000  -0.0000000  -0.0000000  -0.0000000  -0.0000000  -0.0000000  -0.0000000  -0.0000000
 NQMom=    0.0000000   0.0000000   0.0000000   0.0000000   0.0000000   0.0000000   0.0000000   0.0000000   0.0000000   0.0000000
 NMagM=    0.0000000   2.7928460   2.7928460   2.7928460   2.7928460   0.0000000   2.7928460   2.7928460   2.7928460   2.7928460
 AtZNuc=   6.0000000   1.0000000   1.0000000   1.0000000   1.0000000   6.0000000   1.0000000   1.0000000   1.0000000   1.0000000

  Atom        81          82          83          84          85          86          87          88          89          90
 IAtWgt=          12          16          12          14           1           1           1           1          12           1
 AtmWgt=  12.0000000  15.9949146  12.0000000  14.0030740   1.0078250   1.0078250   1.0078250   1.0078250  12.0000000   1.0078250
 NucSpn=           0           0           0           2           1           1           1           1           0           1
 AtZEff=  -0.0000000  -0.0000000  -0.0000000  -0.0000000  -0.0000000  -0.0000000  -0.0000000  -0.0000000  -0.0000000  -0.0000000
 NQMom=    0.0000000   0.0000000   0.0000000   2.0440000   0.0000000   0.0000000   0.0000000   0.0000000   0.0000000   0.0000000
 NMagM=    0.0000000   0.0000000   0.0000000   0.4037610   2.7928460   2.7928460   2.7928460   2.7928460   0.0000000   2.7928460
 AtZNuc=   6.0000000   8.0000000   6.0000000   7.0000000   1.0000000   1.0000000   1.0000000   1.0000000   6.0000000   1.0000000

  Atom        91          92          93          94          95          96          97          98          99         100
 IAtWgt=          12          16          12          14           1           1           1           1          12           1
 AtmWgt=  12.0000000  15.9949146  12.0000000  14.0030740   1.0078250   1.0078250   1.0078250   1.0078250  12.0000000   1.0078250
 NucSpn=           0           0           0           2           1           1           1           1           0           1
 AtZEff=  -0.0000000  -0.0000000  -0.0000000  -0.0000000  -0.0000000  -0.0000000  -0.0000000  -0.0000000  -0.0000000  -0.0000000
 NQMom=    0.0000000   0.0000000   0.0000000   2.0440000   0.0000000   0.0000000   0.0000000   0.0000000   0.0000000   0.0000000
 NMagM=    0.0000000   0.0000000   0.0000000   0.4037610   2.7928460   2.7928460   2.7928460   2.7928460   0.0000000   2.7928460
 AtZNuc=   6.0000000   8.0000000   6.0000000   7.0000000   1.0000000   1.0000000   1.0000000   1.0000000   6.0000000   1.0000000

  Atom       101         102         103         104         105         106         107         108         109         110
 IAtWgt=          12          16          12          14           1           1           1           1          12           1
 AtmWgt=  12.0000000  15.9949146  12.0000000  14.0030740   1.0078250   1.0078250   1.0078250   1.0078250  12.0000000   1.0078250
 NucSpn=           0           0           0           2           1           1           1           1           0           1
 AtZEff=  -0.0000000  -0.0000000  -0.0000000  -0.0000000  -0.0000000  -0.0000000  -0.0000000  -0.0000000  -0.0000000  -0.0000000
 NQMom=    0.0000000   0.0000000   0.0000000   2.0440000   0.0000000   0.0000000   0.0000000   0.0000000   0.0000000   0.0000000
 NMagM=    0.0000000   0.0000000   0.0000000   0.4037610   2.7928460   2.7928460   2.7928460   2.7928460   0.0000000   2.7928460
 AtZNuc=   6.0000000   8.0000000   6.0000000   7.0000000   1.0000000   1.0000000   1.0000000   1.0000000   6.0000000   1.0000000

  Atom       111         112         113         114         115         116         117         118         119         120
 IAtWgt=          12          16          12          14           1           1           1           1          12           1
 AtmWgt=  12.0000000  15.9949146  12.0000000  14.0030740   1.0078250   1.0078250   1.0078250   1.0078250  12.0000000   1.0078250
 NucSpn=           0           0           0           2           1           1           1           1           0           1
 AtZEff=  -0.0000000  -0.0000000  -0.0000000  -0.0000000  -0.0000000  -0.0000000  -0.0000000  -0.0000000  -0.0000000  -0.0000000
 NQMom=    0.0000000   0.0000000   0.0000000   2.0440000   0.0000000   0.0000000   0.0000000   0.0000000   0.0000000   0.0000000
 NMagM=    0.0000000   0.0000000   0.0000000   0.4037610   2.7928460   2.7928460   2.7928460   2.7928460   0.0000000   2.7928460
 AtZNuc=   6.0000000   8.0000000   6.0000000   7.0000000   1.0000000   1.0000000   1.0000000   1.0000000   6.0000000   1.0000000

  Atom       121         122         123         124         125         126         127         128         129         130
 IAtWgt=          12          16          12          14           1           1           1           1          12           1
 AtmWgt=  12.0000000  15.9949146  12.0000000  14.0030740   1.0078250   1.0078250   1.0078250   1.0078250  12.0000000   1.0078250
 NucSpn=           0           0           0           2           1           1           1           1           0           1
 AtZEff=  -0.0000000  -0.0000000  -0.0000000  -0.0000000  -0.0000000  -0.0000000  -0.0000000  -0.0000000  -0.0000000  -0.0000000
 NQMom=    0.0000000   0.0000000   0.0000000   2.0440000   0.0000000   0.0000000   0.0000000   0.0000000   0.0000000   0.0000000
 NMagM=    0.0000000   0.0000000   0.0000000   0.4037610   2.7928460   2.7928460   2.7928460   2.7928460   0.0000000   2.7928460
 AtZNuc=   6.0000000   8.0000000   6.0000000   7.0000000   1.0000000   1.0000000   1.0000000   1.0000000   6.0000000   1.0000000

  Atom       131         132         133         134         135         136         137         138         139         140
 IAtWgt=          12          16          12          14           1           1           1           1          12           1
 AtmWgt=  12.0000000  15.9949146  12.0000000  14.0030740   1.0078250   1.0078250   1.0078250   1.0078250  12.0000000   1.0078250
 NucSpn=           0           0           0           2           1           1           1           1           0           1
 AtZEff=  -0.0000000  -0.0000000  -0.0000000  -0.0000000  -0.0000000  -0.0000000  -0.0000000  -0.0000000  -0.0000000  -0.0000000
 NQMom=    0.0000000   0.0000000   0.0000000   2.0440000   0.0000000   0.0000000   0.0000000   0.0000000   0.0000000   0.0000000
 NMagM=    0.0000000   0.0000000   0.0000000   0.4037610   2.7928460   2.7928460   2.7928460   2.7928460   0.0000000   2.7928460
 AtZNuc=   6.0000000   8.0000000   6.0000000   7.0000000   1.0000000   1.0000000   1.0000000   1.0000000   6.0000000   1.0000000

  Atom       141         142         143         144         145         146         147         148         149         150
 IAtWgt=          12          16          12          14           1           1           1           1          12           1
 AtmWgt=  12.0000000  15.9949146  12.0000000  14.0030740   1.0078250   1.0078250   1.0078250   1.0078250  12.0000000   1.0078250
 NucSpn=           0           0           0           2           1           1           1           1           0           1
 AtZEff=  -0.0000000  -0.0000000  -0.0000000  -0.0000000  -0.0000000  -0.0000000  -0.0000000  -0.0000000  -0.0000000  -0.0000000
 NQMom=    0.0000000   0.0000000   0.0000000   2.0440000   0.0000000   0.0000000   0.0000000   0.0000000   0.0000000   0.0000000
 NMagM=    0.0000000   0.0000000   0.0000000   0.4037610   2.7928460   2.7928460   2.7928460   2.7928460   0.0000000   2.7928460
 AtZNuc=   6.0000000   8.0000000   6.0000000   7.0000000   1.0000000   1.0000000   1.0000000   1.0000000   6.0000000   1.0000000

  Atom       151         152         153         154         155         156         157         158         159         160
 IAtWgt=          12          16          12          14           1           1           1           1          12           1
 AtmWgt=  12.0000000  15.9949146  12.0000000  14.0030740   1.0078250   1.0078250   1.0078250   1.0078250  12.0000000   1.0078250
 NucSpn=           0           0           0           2           1           1           1           1           0           1
 AtZEff=  -0.0000000  -0.0000000  -0.0000000  -0.0000000  -0.0000000  -0.0000000  -0.0000000  -0.0000000  -0.0000000  -0.0000000
 NQMom=    0.0000000   0.0000000   0.0000000   2.0440000   0.0000000   0.0000000   0.0000000   0.0000000   0.0000000   0.0000000
 NMagM=    0.0000000   0.0000000   0.0000000   0.4037610   2.7928460   2.7928460   2.7928460   2.7928460   0.0000000   2.7928460
 AtZNuc=   6.0000000   8.0000000   6.0000000   7.0000000   1.0000000   1.0000000   1.0000000   1.0000000   6.0000000   1.0000000

  Atom       161         162         163         164         165         166         167         168         169         170
 IAtWgt=          12          16          12          14           1           1           1           1          12           1
 AtmWgt=  12.0000000  15.9949146  12.0000000  14.0030740   1.0078250   1.0078250   1.0078250   1.0078250  12.0000000   1.0078250
 NucSpn=           0           0           0           2           1           1           1           1           0           1
 AtZEff=  -0.0000000  -0.0000000  -0.0000000  -0.0000000  -0.0000000  -0.0000000  -0.0000000  -0.0000000  -0.0000000  -0.0000000
 NQMom=    0.0000000   0.0000000   0.0000000   2.0440000   0.0000000   0.0000000   0.0000000   0.0000000   0.0000000   0.0000000
 NMagM=    0.0000000   0.0000000   0.0000000   0.4037610   2.7928460   2.7928460   2.7928460   2.7928460   0.0000000   2.7928460
 AtZNuc=   6.0000000   8.0000000   6.0000000   7.0000000   1.0000000   1.0000000   1.0000000   1.0000000   6.0000000   1.0000000

  Atom       171         172         173         174         175         176         177         178         179         180
 IAtWgt=          12          16          16          12          14           1           1           1           1           1
 AtmWgt=  12.0000000  15.9949146  15.9949146  12.0000000  14.0030740   1.0078250   1.0078250   1.0078250   1.0078250   1.0078250
 NucSpn=           0           0           0           0           2           1           1           1           1           1
 AtZEff=  -0.0000000  -0.0000000  -0.0000000  -0.0000000  -0.0000000  -0.0000000  -0.0000000  -0.0000000  -0.0000000  -0.0000000
 NQMom=    0.0000000   0.0000000   0.0000000   0.0000000   2.0440000   0.0000000   0.0000000   0.0000000   0.0000000   0.0000000
 NMagM=    0.0000000   0.0000000   0.0000000   0.0000000   0.4037610   2.7928460   2.7928460   2.7928460   2.7928460   2.7928460
 AtZNuc=   6.0000000   8.0000000   8.0000000   6.0000000   7.0000000   1.0000000   1.0000000   1.0000000   1.0000000   1.0000000

  Atom       181         182         183         184         185         186         187         188         189         190
 IAtWgt=           1          12           1          16          12          16           1           1          12          14
 AtmWgt=   1.0078250  12.0000000   1.0078250  15.9949146  12.0000000  15.9949146   1.0078250   1.0078250  12.0000000  14.0030740
 NucSpn=           1           0           1           0           0           0           1           1           0           2
 AtZEff=  -0.0000000  -0.0000000  -0.0000000  -0.0000000  -0.0000000  -0.0000000  -0.0000000  -0.0000000  -0.0000000  -0.0000000
 NQMom=    0.0000000   0.0000000   0.0000000   0.0000000   0.0000000   0.0000000   0.0000000   0.0000000   0.0000000   2.0440000
 NMagM=    2.7928460   0.0000000   2.7928460   0.0000000   0.0000000   0.0000000   2.7928460   2.7928460   0.0000000   0.4037610
 AtZNuc=   1.0000000   6.0000000   1.0000000   8.0000000   6.0000000   8.0000000   1.0000000   1.0000000   6.0000000   7.0000000

  Atom       191         192         193         194         195         196         197         198         199         200
 IAtWgt=           1          16          16           1           1           1          12           1           1           1
 AtmWgt=   1.0078250  15.9949146  15.9949146   1.0078250   1.0078250   1.0078250  12.0000000   1.0078250   1.0078250   1.0078250
 NucSpn=           1           0           0           1           1           1           0           1           1           1
 AtZEff=  -0.0000000  -0.0000000  -0.0000000  -0.0000000  -0.0000000  -0.0000000  -0.0000000  -0.0000000  -0.0000000  -0.0000000
 NQMom=    0.0000000   0.0000000   0.0000000   0.0000000   0.0000000   0.0000000   0.0000000   0.0000000   0.0000000   0.0000000
 NMagM=    2.7928460   0.0000000   0.0000000   2.7928460   2.7928460   2.7928460   0.0000000   2.7928460   2.7928460   2.7928460
 AtZNuc=   1.0000000   8.0000000   8.0000000   1.0000000   1.0000000   1.0000000   6.0000000   1.0000000   1.0000000   1.0000000

  Atom       201         202         203         204         205         206         207         208         209         210
 IAtWgt=           1           1          12          16          16          16           1           1           1           1
 AtmWgt=   1.0078250   1.0078250  12.0000000  15.9949146  15.9949146  15.9949146   1.0078250   1.0078250   1.0078250   1.0078250
 NucSpn=           1           1           0           0           0           0           1           1           1           1
 AtZEff=  -0.0000000  -0.0000000  -0.0000000  -0.0000000  -0.0000000  -0.0000000  -0.0000000  -0.0000000  -0.0000000  -0.0000000
 NQMom=    0.0000000   0.0000000   0.0000000   0.0000000   0.0000000   0.0000000   0.0000000   0.0000000   0.0000000   0.0000000
 NMagM=    2.7928460   2.7928460   0.0000000   0.0000000   0.0000000   0.0000000   2.7928460   2.7928460   2.7928460   2.7928460
 AtZNuc=   1.0000000   1.0000000   6.0000000   8.0000000   8.0000000   8.0000000   1.0000000   1.0000000   1.0000000   1.0000000

  Atom       211         212         213
 IAtWgt=           1           1           1
 AtmWgt=   1.0078250   1.0078250   1.0078250
 NucSpn=           1           1           1
 AtZEff=  -0.0000000  -0.0000000  -0.0000000
 NQMom=    0.0000000   0.0000000   0.0000000
 NMagM=    2.7928460   2.7928460   2.7928460
 AtZNuc=   1.0000000   1.0000000   1.0000000
 Leave Link  101 at Sun Jan 30 19:23:15 2022, MaxMem=  8589934592 cpu:               9.0 elap:               0.4
 (Enter /share/apps/g16.b01_avx2/g16/l103.exe)

 GradGradGradGradGradGradGradGradGradGradGradGradGradGradGradGradGradGrad
 Berny optimization.
 Initialization pass.
                           ----------------------------
                           !    Initial Parameters    !
                           ! (Angstroms and Degrees)  !
 --------------------------                            --------------------------
 ! Name  Definition              Value          Derivative Info.                !
 --------------------------------------------------------------------------------
 ! R1    R(1,2)                  0.9768         estimate D2E/DX2                !
 ! R2    R(1,3)                  0.9806         estimate D2E/DX2                !
 ! R3    R(1,5)                  1.7894         estimate D2E/DX2                !
 ! R4    R(2,4)                  1.9051         estimate D2E/DX2                !
 ! R5    R(3,7)                  1.8004         estimate D2E/DX2                !
 ! R6    R(4,8)                  1.2448         estimate D2E/DX2                !
 ! R7    R(4,9)                  1.9482         estimate D2E/DX2                !
 ! R8    R(5,10)                 0.9861         estimate D2E/DX2                !
 ! R9    R(6,11)                 0.9729         estimate D2E/DX2                !
 ! R10   R(7,12)                 1.2455         estimate D2E/DX2                !
 ! R11   R(8,14)                 1.5401         estimate D2E/DX2                !
 ! R12   R(8,15)                 1.3478         estimate D2E/DX2                !
 ! R13   R(9,16)                 0.9736         estimate D2E/DX2                !
 ! R14   R(10,17)                0.985          estimate D2E/DX2                !
 ! R15   R(10,18)                1.8399         estimate D2E/DX2                !
 ! R16   R(10,19)                1.7832         estimate D2E/DX2                !
 ! R17   R(11,20)                1.0015         estimate D2E/DX2                !
 ! R18   R(11,21)                1.5935         estimate D2E/DX2                !
 ! R19   R(12,22)                1.5433         estimate D2E/DX2                !
 ! R20   R(12,23)                1.3464         estimate D2E/DX2                !
 ! R21   R(13,24)                0.9701         estimate D2E/DX2                !
 ! R22   R(14,25)                1.5343         estimate D2E/DX2                !
 ! R23   R(14,26)                1.4595         estimate D2E/DX2                !
 ! R24   R(14,27)                1.0954         estimate D2E/DX2                !
 ! R25   R(15,22)                1.4559         estimate D2E/DX2                !
 ! R26   R(15,28)                1.0202         estimate D2E/DX2                !
 ! R27   R(16,18)                0.9824         estimate D2E/DX2                !
 ! R28   R(16,29)                1.7631         estimate D2E/DX2                !
 ! R29   R(17,30)                1.8022         estimate D2E/DX2                !
 ! R30   R(19,31)                0.9867         estimate D2E/DX2                !
 ! R31   R(20,24)                1.6753         estimate D2E/DX2                !
 ! R32   R(21,30)                1.0129         estimate D2E/DX2                !
 ! R33   R(22,32)                1.5353         estimate D2E/DX2                !
 ! R34   R(22,33)                1.094          estimate D2E/DX2                !
 ! R35   R(23,34)                1.4624         estimate D2E/DX2                !
 ! R36   R(23,35)                1.0222         estimate D2E/DX2                !
 ! R37   R(24,36)                0.9985         estimate D2E/DX2                !
 ! R38   R(25,37)                1.0953         estimate D2E/DX2                !
 ! R39   R(25,38)                1.0945         estimate D2E/DX2                !
 ! R40   R(25,39)                1.0934         estimate D2E/DX2                !
 ! R41   R(26,40)                1.3489         estimate D2E/DX2                !
 ! R42   R(26,41)                1.0216         estimate D2E/DX2                !
 ! R43   R(29,42)                0.9875         estimate D2E/DX2                !
 ! R44   R(30,43)                1.8765         estimate D2E/DX2                !
 ! R45   R(30,44)                0.9651         estimate D2E/DX2                !
 ! R46   R(31,45)                0.9753         estimate D2E/DX2                !
 ! R47   R(31,46)                2.0351         estimate D2E/DX2                !
 ! R48   R(31,47)                1.8819         estimate D2E/DX2                !
 ! R49   R(32,48)                1.0941         estimate D2E/DX2                !
 ! R50   R(32,49)                1.0946         estimate D2E/DX2                !
 ! R51   R(32,50)                1.094          estimate D2E/DX2                !
 ! R52   R(34,51)                1.5384         estimate D2E/DX2                !
 ! R53   R(34,52)                1.5432         estimate D2E/DX2                !
 ! R54   R(34,53)                1.0906         estimate D2E/DX2                !
 ! R55   R(36,54)                1.682          estimate D2E/DX2                !
 ! R56   R(40,55)                1.5397         estimate D2E/DX2                !
 ! R57   R(40,56)                1.2415         estimate D2E/DX2                !
 ! R58   R(42,57)                0.9706         estimate D2E/DX2                !
 ! R59   R(42,58)                1.8942         estimate D2E/DX2                !
 ! R60   R(43,59)                0.9785         estimate D2E/DX2                !
 ! R61   R(46,61)                0.9736         estimate D2E/DX2                !
 ! R62   R(47,59)                0.9814         estimate D2E/DX2                !
 ! R63   R(51,62)                1.0953         estimate D2E/DX2                !
 ! R64   R(51,63)                1.0951         estimate D2E/DX2                !
 ! R65   R(51,64)                1.0943         estimate D2E/DX2                !
 ! R66   R(52,60)                1.2481         estimate D2E/DX2                !
 ! R67   R(52,65)                1.3424         estimate D2E/DX2                !
 ! R68   R(54,66)                0.9747         estimate D2E/DX2                !
 ! R69   R(54,67)                0.9922         estimate D2E/DX2                !
 ! R70   R(55,68)                1.5332         estimate D2E/DX2                !
 ! R71   R(55,69)                1.4579         estimate D2E/DX2                !
 ! R72   R(55,70)                1.0954         estimate D2E/DX2                !
 ! R73   R(58,61)                0.9794         estimate D2E/DX2                !
 ! R74   R(59,67)                1.7471         estimate D2E/DX2                !
 ! R75   R(60,66)                1.9455         estimate D2E/DX2                !
 ! R76   R(65,71)                1.4628         estimate D2E/DX2                !
 ! R77   R(65,72)                1.0184         estimate D2E/DX2                !
 ! R78   R(68,73)                1.0945         estimate D2E/DX2                !
 ! R79   R(68,74)                1.0949         estimate D2E/DX2                !
 ! R80   R(68,75)                1.0939         estimate D2E/DX2                !
 ! R81   R(69,76)                1.3487         estimate D2E/DX2                !
 ! R82   R(69,77)                1.0211         estimate D2E/DX2                !
 ! R83   R(71,78)                1.0948         estimate D2E/DX2                !
 ! R84   R(71,79)                1.095          estimate D2E/DX2                !
 ! R85   R(71,80)                1.0922         estimate D2E/DX2                !
 ! R86   R(76,81)                1.5411         estimate D2E/DX2                !
 ! R87   R(76,82)                1.2412         estimate D2E/DX2                !
 ! R88   R(81,83)                1.5332         estimate D2E/DX2                !
 ! R89   R(81,84)                1.4588         estimate D2E/DX2                !
 ! R90   R(81,85)                1.0955         estimate D2E/DX2                !
 ! R91   R(83,86)                1.0947         estimate D2E/DX2                !
 ! R92   R(83,87)                1.0949         estimate D2E/DX2                !
 ! R93   R(83,88)                1.0942         estimate D2E/DX2                !
 ! R94   R(84,89)                1.3512         estimate D2E/DX2                !
 ! R95   R(84,90)                1.0208         estimate D2E/DX2                !
 ! R96   R(89,91)                1.5412         estimate D2E/DX2                !
 ! R97   R(89,92)                1.2394         estimate D2E/DX2                !
 ! R98   R(91,93)                1.5331         estimate D2E/DX2                !
 ! R99   R(91,94)                1.4584         estimate D2E/DX2                !
 ! R100  R(91,95)                1.0953         estimate D2E/DX2                !
 ! R101  R(93,96)                1.0947         estimate D2E/DX2                !
 ! R102  R(93,97)                1.0949         estimate D2E/DX2                !
 ! R103  R(93,98)                1.0941         estimate D2E/DX2                !
 ! R104  R(94,99)                1.3505         estimate D2E/DX2                !
 ! R105  R(94,100)               1.0206         estimate D2E/DX2                !
 ! R106  R(99,101)               1.5411         estimate D2E/DX2                !
 ! R107  R(99,102)               1.2393         estimate D2E/DX2                !
 ! R108  R(101,103)              1.5331         estimate D2E/DX2                !
 ! R109  R(101,104)              1.4591         estimate D2E/DX2                !
 ! R110  R(101,105)              1.0953         estimate D2E/DX2                !
 ! R111  R(103,106)              1.0949         estimate D2E/DX2                !
 ! R112  R(103,107)              1.0949         estimate D2E/DX2                !
 ! R113  R(103,108)              1.094          estimate D2E/DX2                !
 ! R114  R(104,109)              1.3508         estimate D2E/DX2                !
 ! R115  R(104,110)              1.0205         estimate D2E/DX2                !
 ! R116  R(109,111)              1.5411         estimate D2E/DX2                !
 ! R117  R(109,112)              1.2394         estimate D2E/DX2                !
 ! R118  R(111,113)              1.5333         estimate D2E/DX2                !
 ! R119  R(111,114)              1.4587         estimate D2E/DX2                !
 ! R120  R(111,115)              1.0953         estimate D2E/DX2                !
 ! R121  R(113,116)              1.0947         estimate D2E/DX2                !
 ! R122  R(113,117)              1.0949         estimate D2E/DX2                !
 ! R123  R(113,118)              1.0941         estimate D2E/DX2                !
 ! R124  R(114,119)              1.3505         estimate D2E/DX2                !
 ! R125  R(114,120)              1.0204         estimate D2E/DX2                !
 ! R126  R(119,121)              1.5416         estimate D2E/DX2                !
 ! R127  R(119,122)              1.2395         estimate D2E/DX2                !
 ! R128  R(121,123)              1.5331         estimate D2E/DX2                !
 ! R129  R(121,124)              1.4588         estimate D2E/DX2                !
 ! R130  R(121,125)              1.0953         estimate D2E/DX2                !
 ! R131  R(123,126)              1.0948         estimate D2E/DX2                !
 ! R132  R(123,127)              1.0949         estimate D2E/DX2                !
 ! R133  R(123,128)              1.094          estimate D2E/DX2                !
 ! R134  R(124,129)              1.3509         estimate D2E/DX2                !
 ! R135  R(124,130)              1.0202         estimate D2E/DX2                !
 ! R136  R(129,131)              1.5413         estimate D2E/DX2                !
 ! R137  R(129,132)              1.2391         estimate D2E/DX2                !
 ! R138  R(131,133)              1.5331         estimate D2E/DX2                !
 ! R139  R(131,134)              1.4586         estimate D2E/DX2                !
 ! R140  R(131,135)              1.0952         estimate D2E/DX2                !
 ! R141  R(133,136)              1.0948         estimate D2E/DX2                !
 ! R142  R(133,137)              1.095          estimate D2E/DX2                !
 ! R143  R(133,138)              1.094          estimate D2E/DX2                !
 ! R144  R(134,139)              1.3512         estimate D2E/DX2                !
 ! R145  R(134,140)              1.0197         estimate D2E/DX2                !
 ! R146  R(139,141)              1.5411         estimate D2E/DX2                !
 ! R147  R(139,142)              1.2389         estimate D2E/DX2                !
 ! R148  R(141,143)              1.5332         estimate D2E/DX2                !
 ! R149  R(141,144)              1.4588         estimate D2E/DX2                !
 ! R150  R(141,145)              1.0952         estimate D2E/DX2                !
 ! R151  R(143,146)              1.0949         estimate D2E/DX2                !
 ! R152  R(143,147)              1.0949         estimate D2E/DX2                !
 ! R153  R(143,148)              1.094          estimate D2E/DX2                !
 ! R154  R(144,149)              1.3513         estimate D2E/DX2                !
 ! R155  R(144,150)              1.0196         estimate D2E/DX2                !
 ! R156  R(149,151)              1.541          estimate D2E/DX2                !
 ! R157  R(149,152)              1.2388         estimate D2E/DX2                !
 ! R158  R(151,153)              1.5329         estimate D2E/DX2                !
 ! R159  R(151,154)              1.4596         estimate D2E/DX2                !
 ! R160  R(151,155)              1.0953         estimate D2E/DX2                !
 ! R161  R(153,156)              1.0948         estimate D2E/DX2                !
 ! R162  R(153,157)              1.0947         estimate D2E/DX2                !
 ! R163  R(153,158)              1.094          estimate D2E/DX2                !
 ! R164  R(154,159)              1.3507         estimate D2E/DX2                !
 ! R165  R(154,160)              1.0209         estimate D2E/DX2                !
 ! R166  R(159,161)              1.5419         estimate D2E/DX2                !
 ! R167  R(159,162)              1.2388         estimate D2E/DX2                !
 ! R168  R(161,163)              1.5333         estimate D2E/DX2                !
 ! R169  R(161,164)              1.46           estimate D2E/DX2                !
 ! R170  R(161,165)              1.0955         estimate D2E/DX2                !
 ! R171  R(163,166)              1.095          estimate D2E/DX2                !
 ! R172  R(163,167)              1.0954         estimate D2E/DX2                !
 ! R173  R(163,168)              1.0939         estimate D2E/DX2                !
 ! R174  R(164,169)              1.3509         estimate D2E/DX2                !
 ! R175  R(164,170)              1.0227         estimate D2E/DX2                !
 ! R176  R(169,171)              1.5437         estimate D2E/DX2                !
 ! R177  R(169,172)              1.2381         estimate D2E/DX2                !
 ! R178  R(170,173)              1.9838         estimate D2E/DX2                !
 ! R179  R(171,174)              1.5326         estimate D2E/DX2                !
 ! R180  R(171,175)              1.4604         estimate D2E/DX2                !
 ! R181  R(171,176)              1.0946         estimate D2E/DX2                !
 ! R182  R(173,177)              0.9874         estimate D2E/DX2                !
 ! R183  R(173,178)              0.9651         estimate D2E/DX2                !
 ! R184  R(174,179)              1.0946         estimate D2E/DX2                !
 ! R185  R(174,180)              1.096          estimate D2E/DX2                !
 ! R186  R(174,181)              1.0939         estimate D2E/DX2                !
 ! R187  R(175,182)              1.3541         estimate D2E/DX2                !
 ! R188  R(175,183)              1.0231         estimate D2E/DX2                !
 ! R189  R(177,184)              1.7343         estimate D2E/DX2                !
 ! R190  R(182,185)              1.5405         estimate D2E/DX2                !
 ! R191  R(182,186)              1.2375         estimate D2E/DX2                !
 ! R192  R(183,184)              1.9792         estimate D2E/DX2                !
 ! R193  R(184,187)              0.9793         estimate D2E/DX2                !
 ! R194  R(184,188)              0.9873         estimate D2E/DX2                !
 ! R195  R(185,189)              1.5341         estimate D2E/DX2                !
 ! R196  R(185,190)              1.457          estimate D2E/DX2                !
 ! R197  R(185,191)              1.0951         estimate D2E/DX2                !
 ! R198  R(187,192)              1.8089         estimate D2E/DX2                !
 ! R199  R(188,193)              1.742          estimate D2E/DX2                !
 ! R200  R(189,194)              1.0957         estimate D2E/DX2                !
 ! R201  R(189,195)              1.0958         estimate D2E/DX2                !
 ! R202  R(189,196)              1.0937         estimate D2E/DX2                !
 ! R203  R(190,197)              1.3586         estimate D2E/DX2                !
 ! R204  R(190,198)              1.0217         estimate D2E/DX2                !
 ! R205  R(192,199)              0.9669         estimate D2E/DX2                !
 ! R206  R(192,200)              0.9669         estimate D2E/DX2                !
 ! R207  R(193,198)              1.9535         estimate D2E/DX2                !
 ! R208  R(193,201)              0.9803         estimate D2E/DX2                !
 ! R209  R(193,202)              0.981          estimate D2E/DX2                !
 ! R210  R(197,203)              1.5154         estimate D2E/DX2                !
 ! R211  R(197,204)              1.2393         estimate D2E/DX2                !
 ! R212  R(201,205)              1.788          estimate D2E/DX2                !
 ! R213  R(202,206)              1.7817         estimate D2E/DX2                !
 ! R214  R(203,207)              1.094          estimate D2E/DX2                !
 ! R215  R(203,208)              1.0952         estimate D2E/DX2                !
 ! R216  R(203,209)              1.0937         estimate D2E/DX2                !
 ! R217  R(205,210)              0.9664         estimate D2E/DX2                !
 ! R218  R(205,211)              0.9663         estimate D2E/DX2                !
 ! R219  R(206,212)              0.9666         estimate D2E/DX2                !
 ! R220  R(206,213)              0.9666         estimate D2E/DX2                !
 ! A1    A(2,1,3)              103.244          estimate D2E/DX2                !
 ! A2    A(2,1,5)               99.1781         estimate D2E/DX2                !
 ! A3    A(3,1,5)              108.1027         estimate D2E/DX2                !
 ! A4    A(1,2,4)              158.3336         estimate D2E/DX2                !
 ! A5    A(1,3,7)              164.581          estimate D2E/DX2                !
 ! A6    A(2,4,8)              143.962          estimate D2E/DX2                !
 ! A7    A(2,4,9)               83.3762         estimate D2E/DX2                !
 ! A8    A(8,4,9)              128.0344         estimate D2E/DX2                !
 ! A9    A(3,7,12)             111.0824         estimate D2E/DX2                !
 ! A10   A(4,8,14)             119.6553         estimate D2E/DX2                !
 ! A11   A(4,8,15)             122.9317         estimate D2E/DX2                !
 ! A12   A(14,8,15)            117.3737         estimate D2E/DX2                !
 ! A13   A(5,10,17)            104.0758         estimate D2E/DX2                !
 ! A14   A(5,10,18)             96.6401         estimate D2E/DX2                !
 ! A15   A(5,10,19)            120.7694         estimate D2E/DX2                !
 ! A16   A(17,10,18)           127.2563         estimate D2E/DX2                !
 ! A17   A(17,10,19)           100.6376         estimate D2E/DX2                !
 ! A18   A(18,10,19)           109.2671         estimate D2E/DX2                !
 ! A19   A(6,11,20)            103.9362         estimate D2E/DX2                !
 ! A20   A(6,11,21)            106.2479         estimate D2E/DX2                !
 ! A21   A(20,11,21)           108.388          estimate D2E/DX2                !
 ! A22   A(7,12,22)            118.7395         estimate D2E/DX2                !
 ! A23   A(7,12,23)            123.48           estimate D2E/DX2                !
 ! A24   A(22,12,23)           117.7162         estimate D2E/DX2                !
 ! A25   A(8,14,25)            109.6791         estimate D2E/DX2                !
 ! A26   A(8,14,26)            112.7745         estimate D2E/DX2                !
 ! A27   A(8,14,27)            104.8546         estimate D2E/DX2                !
 ! A28   A(25,14,26)           110.2608         estimate D2E/DX2                !
 ! A29   A(25,14,27)           109.8397         estimate D2E/DX2                !
 ! A30   A(26,14,27)           109.2843         estimate D2E/DX2                !
 ! A31   A(8,15,22)            121.7233         estimate D2E/DX2                !
 ! A32   A(8,15,28)            119.5657         estimate D2E/DX2                !
 ! A33   A(22,15,28)           118.3101         estimate D2E/DX2                !
 ! A34   A(9,16,18)            104.6515         estimate D2E/DX2                !
 ! A35   A(9,16,29)            102.9637         estimate D2E/DX2                !
 ! A36   A(18,16,29)           105.3394         estimate D2E/DX2                !
 ! A37   A(10,17,30)           158.1078         estimate D2E/DX2                !
 ! A38   A(10,18,16)           162.7239         estimate D2E/DX2                !
 ! A39   A(12,22,15)           113.5142         estimate D2E/DX2                !
 ! A40   A(12,22,32)           109.3471         estimate D2E/DX2                !
 ! A41   A(12,22,33)           104.7712         estimate D2E/DX2                !
 ! A42   A(15,22,32)           110.5382         estimate D2E/DX2                !
 ! A43   A(15,22,33)           109.0109         estimate D2E/DX2                !
 ! A44   A(32,22,33)           109.4586         estimate D2E/DX2                !
 ! A45   A(12,23,34)           121.5231         estimate D2E/DX2                !
 ! A46   A(12,23,35)           118.9945         estimate D2E/DX2                !
 ! A47   A(34,23,35)           118.688          estimate D2E/DX2                !
 ! A48   A(13,24,20)           111.7381         estimate D2E/DX2                !
 ! A49   A(13,24,36)           105.147          estimate D2E/DX2                !
 ! A50   A(20,24,36)           112.5158         estimate D2E/DX2                !
 ! A51   A(14,25,37)           110.8277         estimate D2E/DX2                !
 ! A52   A(14,25,38)           110.1186         estimate D2E/DX2                !
 ! A53   A(14,25,39)           109.5967         estimate D2E/DX2                !
 ! A54   A(37,25,38)           108.4798         estimate D2E/DX2                !
 ! A55   A(37,25,39)           109.0972         estimate D2E/DX2                !
 ! A56   A(38,25,39)           108.6776         estimate D2E/DX2                !
 ! A57   A(14,26,40)           120.6131         estimate D2E/DX2                !
 ! A58   A(14,26,41)           118.9864         estimate D2E/DX2                !
 ! A59   A(40,26,41)           120.332          estimate D2E/DX2                !
 ! A60   A(17,30,21)            97.6382         estimate D2E/DX2                !
 ! A61   A(17,30,43)            92.8393         estimate D2E/DX2                !
 ! A62   A(17,30,44)           125.2434         estimate D2E/DX2                !
 ! A63   A(21,30,43)           111.3438         estimate D2E/DX2                !
 ! A64   A(21,30,44)           107.051          estimate D2E/DX2                !
 ! A65   A(43,30,44)           120.3096         estimate D2E/DX2                !
 ! A66   A(19,31,45)           106.4769         estimate D2E/DX2                !
 ! A67   A(19,31,46)           100.8571         estimate D2E/DX2                !
 ! A68   A(19,31,47)            95.8881         estimate D2E/DX2                !
 ! A69   A(45,31,46)           111.4426         estimate D2E/DX2                !
 ! A70   A(45,31,47)            98.4713         estimate D2E/DX2                !
 ! A71   A(46,31,47)           139.4741         estimate D2E/DX2                !
 ! A72   A(22,32,48)           110.148          estimate D2E/DX2                !
 ! A73   A(22,32,49)           110.8721         estimate D2E/DX2                !
 ! A74   A(22,32,50)           109.6003         estimate D2E/DX2                !
 ! A75   A(48,32,49)           108.1492         estimate D2E/DX2                !
 ! A76   A(48,32,50)           109.0344         estimate D2E/DX2                !
 ! A77   A(49,32,50)           108.9961         estimate D2E/DX2                !
 ! A78   A(23,34,51)           110.5046         estimate D2E/DX2                !
 ! A79   A(23,34,52)           115.0369         estimate D2E/DX2                !
 ! A80   A(23,34,53)           107.0011         estimate D2E/DX2                !
 ! A81   A(51,34,52)           108.8758         estimate D2E/DX2                !
 ! A82   A(51,34,53)           109.7624         estimate D2E/DX2                !
 ! A83   A(52,34,53)           105.4538         estimate D2E/DX2                !
 ! A84   A(26,40,55)           117.7313         estimate D2E/DX2                !
 ! A85   A(26,40,56)           122.4482         estimate D2E/DX2                !
 ! A86   A(55,40,56)           119.8113         estimate D2E/DX2                !
 ! A87   A(29,42,57)           105.5233         estimate D2E/DX2                !
 ! A88   A(29,42,58)           104.1329         estimate D2E/DX2                !
 ! A89   A(57,42,58)           106.9292         estimate D2E/DX2                !
 ! A90   A(31,47,59)           159.2738         estimate D2E/DX2                !
 ! A91   A(34,51,62)           110.9262         estimate D2E/DX2                !
 ! A92   A(34,51,63)           110.0811         estimate D2E/DX2                !
 ! A93   A(34,51,64)           109.7801         estimate D2E/DX2                !
 ! A94   A(62,51,63)           108.5954         estimate D2E/DX2                !
 ! A95   A(62,51,64)           108.7618         estimate D2E/DX2                !
 ! A96   A(63,51,64)           108.6461         estimate D2E/DX2                !
 ! A97   A(34,52,60)           118.7035         estimate D2E/DX2                !
 ! A98   A(34,52,65)           117.7097         estimate D2E/DX2                !
 ! A99   A(60,52,65)           123.2812         estimate D2E/DX2                !
 ! A100  A(36,54,66)           114.3948         estimate D2E/DX2                !
 ! A101  A(36,54,67)           109.4884         estimate D2E/DX2                !
 ! A102  A(66,54,67)           105.1613         estimate D2E/DX2                !
 ! A103  A(40,55,68)           110.5002         estimate D2E/DX2                !
 ! A104  A(40,55,69)           112.1562         estimate D2E/DX2                !
 ! A105  A(40,55,70)           104.1602         estimate D2E/DX2                !
 ! A106  A(68,55,69)           110.5439         estimate D2E/DX2                !
 ! A107  A(68,55,70)           109.9282         estimate D2E/DX2                !
 ! A108  A(69,55,70)           109.3607         estimate D2E/DX2                !
 ! A109  A(43,59,47)           104.0568         estimate D2E/DX2                !
 ! A110  A(43,59,67)           107.8599         estimate D2E/DX2                !
 ! A111  A(47,59,67)           100.4123         estimate D2E/DX2                !
 ! A112  A(52,60,66)           129.9716         estimate D2E/DX2                !
 ! A113  A(46,61,58)           105.7952         estimate D2E/DX2                !
 ! A114  A(52,65,71)           122.7565         estimate D2E/DX2                !
 ! A115  A(52,65,72)           120.1493         estimate D2E/DX2                !
 ! A116  A(71,65,72)           115.8883         estimate D2E/DX2                !
 ! A117  A(55,68,73)           110.7514         estimate D2E/DX2                !
 ! A118  A(55,68,74)           110.2483         estimate D2E/DX2                !
 ! A119  A(55,68,75)           109.6784         estimate D2E/DX2                !
 ! A120  A(73,68,74)           108.4778         estimate D2E/DX2                !
 ! A121  A(73,68,75)           108.881          estimate D2E/DX2                !
 ! A122  A(74,68,75)           108.759          estimate D2E/DX2                !
 ! A123  A(55,69,76)           120.7218         estimate D2E/DX2                !
 ! A124  A(55,69,77)           118.7577         estimate D2E/DX2                !
 ! A125  A(76,69,77)           120.5081         estimate D2E/DX2                !
 ! A126  A(65,71,78)           113.4377         estimate D2E/DX2                !
 ! A127  A(65,71,79)           108.4196         estimate D2E/DX2                !
 ! A128  A(65,71,80)           108.7008         estimate D2E/DX2                !
 ! A129  A(78,71,79)           108.6108         estimate D2E/DX2                !
 ! A130  A(78,71,80)           108.3637         estimate D2E/DX2                !
 ! A131  A(79,71,80)           109.247          estimate D2E/DX2                !
 ! A132  A(69,76,81)           116.7695         estimate D2E/DX2                !
 ! A133  A(69,76,82)           122.8252         estimate D2E/DX2                !
 ! A134  A(81,76,82)           120.4013         estimate D2E/DX2                !
 ! A135  A(76,81,83)           110.8623         estimate D2E/DX2                !
 ! A136  A(76,81,84)           111.7693         estimate D2E/DX2                !
 ! A137  A(76,81,85)           104.2437         estimate D2E/DX2                !
 ! A138  A(83,81,84)           110.3534         estimate D2E/DX2                !
 ! A139  A(83,81,85)           110.0068         estimate D2E/DX2                !
 ! A140  A(84,81,85)           109.4351         estimate D2E/DX2                !
 ! A141  A(81,83,86)           110.8278         estimate D2E/DX2                !
 ! A142  A(81,83,87)           110.29           estimate D2E/DX2                !
 ! A143  A(81,83,88)           109.7536         estimate D2E/DX2                !
 ! A144  A(86,83,87)           108.3828         estimate D2E/DX2                !
 ! A145  A(86,83,88)           108.8845         estimate D2E/DX2                !
 ! A146  A(87,83,88)           108.6514         estimate D2E/DX2                !
 ! A147  A(81,84,89)           120.4108         estimate D2E/DX2                !
 ! A148  A(81,84,90)           119.0197         estimate D2E/DX2                !
 ! A149  A(89,84,90)           120.5693         estimate D2E/DX2                !
 ! A150  A(84,89,91)           117.0576         estimate D2E/DX2                !
 ! A151  A(84,89,92)           122.6956         estimate D2E/DX2                !
 ! A152  A(91,89,92)           120.2408         estimate D2E/DX2                !
 ! A153  A(89,91,93)           110.8966         estimate D2E/DX2                !
 ! A154  A(89,91,94)           111.8286         estimate D2E/DX2                !
 ! A155  A(89,91,95)           104.0903         estimate D2E/DX2                !
 ! A156  A(93,91,94)           110.263          estimate D2E/DX2                !
 ! A157  A(93,91,95)           110.1326         estimate D2E/DX2                !
 ! A158  A(94,91,95)           109.462          estimate D2E/DX2                !
 ! A159  A(91,93,96)           110.7636         estimate D2E/DX2                !
 ! A160  A(91,93,97)           110.2832         estimate D2E/DX2                !
 ! A161  A(91,93,98)           109.7519         estimate D2E/DX2                !
 ! A162  A(96,93,97)           108.3896         estimate D2E/DX2                !
 ! A163  A(96,93,98)           108.9161         estimate D2E/DX2                !
 ! A164  A(97,93,98)           108.688          estimate D2E/DX2                !
 ! A165  A(91,94,99)           120.6703         estimate D2E/DX2                !
 ! A166  A(91,94,100)          118.8588         estimate D2E/DX2                !
 ! A167  A(99,94,100)          120.4643         estimate D2E/DX2                !
 ! A168  A(94,99,101)          116.9399         estimate D2E/DX2                !
 ! A169  A(94,99,102)          122.8235         estimate D2E/DX2                !
 ! A170  A(101,99,102)         120.2299         estimate D2E/DX2                !
 ! A171  A(99,101,103)         110.7015         estimate D2E/DX2                !
 ! A172  A(99,101,104)         112.0386         estimate D2E/DX2                !
 ! A173  A(99,101,105)         104.1797         estimate D2E/DX2                !
 ! A174  A(103,101,104)        110.3274         estimate D2E/DX2                !
 ! A175  A(103,101,105)        110.0142         estimate D2E/DX2                !
 ! A176  A(104,101,105)        109.4069         estimate D2E/DX2                !
 ! A177  A(101,103,106)        110.8146         estimate D2E/DX2                !
 ! A178  A(101,103,107)        110.3485         estimate D2E/DX2                !
 ! A179  A(101,103,108)        109.7025         estimate D2E/DX2                !
 ! A180  A(106,103,107)        108.4193         estimate D2E/DX2                !
 ! A181  A(106,103,108)        108.889          estimate D2E/DX2                !
 ! A182  A(107,103,108)        108.616          estimate D2E/DX2                !
 ! A183  A(101,104,109)        120.7291         estimate D2E/DX2                !
 ! A184  A(101,104,110)        118.8546         estimate D2E/DX2                !
 ! A185  A(109,104,110)        120.4121         estimate D2E/DX2                !
 ! A186  A(104,109,111)        116.9825         estimate D2E/DX2                !
 ! A187  A(104,109,112)        122.8482         estimate D2E/DX2                !
 ! A188  A(111,109,112)        120.1627         estimate D2E/DX2                !
 ! A189  A(109,111,113)        110.8643         estimate D2E/DX2                !
 ! A190  A(109,111,114)        111.8958         estimate D2E/DX2                !
 ! A191  A(109,111,115)        104.1646         estimate D2E/DX2                !
 ! A192  A(113,111,114)        110.2466         estimate D2E/DX2                !
 ! A193  A(113,111,115)        110.0584         estimate D2E/DX2                !
 ! A194  A(114,111,115)        109.4453         estimate D2E/DX2                !
 ! A195  A(111,113,116)        110.7902         estimate D2E/DX2                !
 ! A196  A(111,113,117)        110.2817         estimate D2E/DX2                !
 ! A197  A(111,113,118)        109.7721         estimate D2E/DX2                !
 ! A198  A(116,113,117)        108.4176         estimate D2E/DX2                !
 ! A199  A(116,113,118)        108.8884         estimate D2E/DX2                !
 ! A200  A(117,113,118)        108.6408         estimate D2E/DX2                !
 ! A201  A(111,114,119)        120.7292         estimate D2E/DX2                !
 ! A202  A(111,114,120)        118.8321         estimate D2E/DX2                !
 ! A203  A(119,114,120)        120.4303         estimate D2E/DX2                !
 ! A204  A(114,119,121)        116.8965         estimate D2E/DX2                !
 ! A205  A(114,119,122)        122.8723         estimate D2E/DX2                !
 ! A206  A(121,119,122)        120.2262         estimate D2E/DX2                !
 ! A207  A(119,121,123)        110.7883         estimate D2E/DX2                !
 ! A208  A(119,121,124)        111.9613         estimate D2E/DX2                !
 ! A209  A(119,121,125)        104.1609         estimate D2E/DX2                !
 ! A210  A(123,121,124)        110.3282         estimate D2E/DX2                !
 ! A211  A(123,121,125)        110.0481         estimate D2E/DX2                !
 ! A212  A(124,121,125)        109.381          estimate D2E/DX2                !
 ! A213  A(121,123,126)        110.8039         estimate D2E/DX2                !
 ! A214  A(121,123,127)        110.3221         estimate D2E/DX2                !
 ! A215  A(121,123,128)        109.7302         estimate D2E/DX2                !
 ! A216  A(126,123,127)        108.4387         estimate D2E/DX2                !
 ! A217  A(126,123,128)        108.8676         estimate D2E/DX2                !
 ! A218  A(127,123,128)        108.6277         estimate D2E/DX2                !
 ! A219  A(121,124,129)        120.6836         estimate D2E/DX2                !
 ! A220  A(121,124,130)        118.9009         estimate D2E/DX2                !
 ! A221  A(129,124,130)        120.4133         estimate D2E/DX2                !
 ! A222  A(124,129,131)        116.966          estimate D2E/DX2                !
 ! A223  A(124,129,132)        122.8383         estimate D2E/DX2                !
 ! A224  A(131,129,132)        120.189          estimate D2E/DX2                !
 ! A225  A(129,131,133)        110.8403         estimate D2E/DX2                !
 ! A226  A(129,131,134)        111.9555         estimate D2E/DX2                !
 ! A227  A(129,131,135)        104.1252         estimate D2E/DX2                !
 ! A228  A(133,131,134)        110.3108         estimate D2E/DX2                !
 ! A229  A(133,131,135)        110.0488         estimate D2E/DX2                !
 ! A230  A(134,131,135)        109.3863         estimate D2E/DX2                !
 ! A231  A(131,133,136)        110.8109         estimate D2E/DX2                !
 ! A232  A(131,133,137)        110.3025         estimate D2E/DX2                !
 ! A233  A(131,133,138)        109.7454         estimate D2E/DX2                !
 ! A234  A(136,133,137)        108.4463         estimate D2E/DX2                !
 ! A235  A(136,133,138)        108.8828         estimate D2E/DX2                !
 ! A236  A(137,133,138)        108.6018         estimate D2E/DX2                !
 ! A237  A(131,134,139)        120.6631         estimate D2E/DX2                !
 ! A238  A(131,134,140)        118.9364         estimate D2E/DX2                !
 ! A239  A(139,134,140)        120.4004         estimate D2E/DX2                !
 ! A240  A(134,139,141)        116.9195         estimate D2E/DX2                !
[...]
     41          1           0        4.752561    1.515002    1.015784
     42          8           0        9.170340    4.193859   -0.474819
     43          1           0       14.753943    0.176127   -1.125452
     44          1           0       15.660668    0.918560    1.032973
     45          1           0       11.488618    0.622751   -2.458762
     46          1           0       11.364071    3.046249   -2.448665
     47          1           0       13.736276    0.620096   -2.199310
     48          1           0        6.538853   -2.688377    3.311180
     49          1           0        6.386039   -3.113327    1.597119
     50          1           0        7.715718   -3.790587    2.564669
     51          6           0        8.227554   -3.222722   -2.447686
     52          6           0        9.442012   -1.022108   -2.361085
     53          1           0        9.991093   -2.755742   -1.292217
     54          8           0       12.952211   -2.244349   -2.160233
     55          6           0        5.072415    1.703109   -1.538926
     56          8           0        7.297243    2.162305   -0.756975
     57          1           0        8.461421    3.536493   -0.589926
     58          1           0       10.349072    4.040026   -1.822896
     59          8           0       14.499965    0.023970   -2.057256
     60          8           0       10.594276   -0.926054   -2.839537
     61          8           0       11.002767    3.946312   -2.546738
     62          1           0        7.259571   -2.776683   -2.692394
     63          1           0        8.057962   -4.160564   -1.912654
     64          1           0        8.760462   -3.440848   -3.377151
     65          7           0        8.509290   -0.096254   -2.542624
     66          1           0       12.087639   -1.864553   -2.412019
     67          1           0       13.568499   -1.477337   -2.131106
     68          6           0        4.235697    2.969749   -1.663340
     69          7           0        4.221320    0.563718   -1.265667
     70          1           0        5.630397    1.530650   -2.465517
     71          6           0        8.719530    1.089628   -3.348427
     72          1           0        7.589956   -0.223596   -2.120902
     73          1           0        3.672027    3.147935   -0.743069
     74          1           0        3.531561    2.871542   -2.493396
     75          1           0        4.886058    3.826057   -1.856621
     76          6           0        4.731253   -0.664215   -1.191079
     77          1           0        3.214058    0.705830   -1.168481
     78          1           0        9.005328    1.939924   -2.725629
     79          1           0        7.792381    1.332486   -3.870988
     80          1           0        9.502770    0.893884   -4.081750
     81          6           0        3.774693   -1.799377   -0.831811
     82          8           0        5.933335   -0.897285   -1.412413
     83          6           0        3.033262   -2.287077   -2.070418
     84          7           0        2.833571   -1.384983    0.186766
     85          1           0        4.414682   -2.595046   -0.434731
     86          1           0        2.388137   -1.497293   -2.466936
     87          1           0        2.415315   -3.152278   -1.817422
     88          1           0        3.748316   -2.582681   -2.841774
     89          6           0        3.256201   -1.057338    1.414156
     90          1           0        1.836838   -1.361743   -0.031873
     91          6           0        2.196539   -0.582210    2.407653
     92          8           0        4.443051   -1.140997    1.754250
     93          6           0        1.451979   -1.764749    3.014216
     94          7           0        1.265936    0.325766    1.772428
     95          1           0        2.757402   -0.047913    3.182386
     96          1           0        0.889813   -2.299448    2.242849
     97          1           0        0.753149   -1.414340    3.778072
     98          1           0        2.161140   -2.453307    3.479942
     99          6           0        1.687919    1.485418    1.252732
    100          1           0        0.275483    0.082385    1.742852
    101          6           0        0.632321    2.345247    0.554620
    102          8           0        2.863117    1.866968    1.331960
    103          6           0       -0.176413    3.142354    1.570086
    104          7           0       -0.247557    1.530405   -0.257306
    105          1           0        1.200650    3.021107   -0.093358
    106          1           0       -0.750188    2.470172    2.215190
    107          1           0       -0.870516    3.810763    1.054153
    108          1           0        0.491798    3.744799    2.190149
    109          6           0        0.226865    0.836191   -1.298724
    110          1           0       -1.243967    1.503048   -0.038846
    111          6           0       -0.773268   -0.033675   -2.062219
    112          8           0        1.410990    0.890853   -1.656905
    113          6           0       -1.576127    0.801435   -3.051456
    114          7           0       -1.661305   -0.724355   -1.151423
    115          1           0       -0.158118   -0.766794   -2.595175
    116          1           0       -2.195194    1.531438   -2.521483
    117          1           0       -2.226832    0.154707   -3.645576
    118          1           0       -0.900814    1.331940   -3.727086
    119          6           0       -1.184765   -1.612769   -0.270376
    120          1           0       -2.664054   -0.542311   -1.199424
    121          6           0       -2.199394   -2.242176    0.686265
    122          8           0        0.009381   -1.936564   -0.223911
    123          6           0       -2.940079   -3.389604    0.011084
    124          7           0       -3.141451   -1.255065    1.170069
    125          1           0       -1.602980   -2.616493    1.525267
    126          1           0       -3.543619   -3.017328   -0.822125
    127          1           0       -3.600038   -3.883336    0.729064
    128          1           0       -2.225292   -4.124226   -0.367611
    129          6           0       -2.732192   -0.217974    1.911515
    130          1           0       -4.132596   -1.366189    0.955199
    131          6           0       -3.801296    0.796232    2.322856
    132          8           0       -1.556686   -0.073016    2.271702
    133          6           0       -4.580536    0.302336    3.535111
    134          7           0       -4.704782    1.071993    1.226091
    135          1           0       -3.245503    1.706424    2.573002
    136          1           0       -5.143242   -0.602113    3.285194
    137          1           0       -5.282454    1.071539    3.867681
    138          1           0       -3.893958    0.079127    4.355300
    139          6           0       -4.260710    1.634677    0.095301
    140          1           0       -5.694492    0.845795    1.326237
    141          6           0       -5.286053    1.827404   -1.023233
    142          8           0       -3.087877    2.001312   -0.056460
    143          6           0       -6.116588    3.082228   -0.786081
    144          7           0       -6.147480    0.670545   -1.144817
    145          1           0       -4.690735    1.932838   -1.936766
    146          1           0       -6.720681    2.974984    0.119841
    147          1           0       -6.784101    3.255519   -1.634094
    148          1           0       -5.460435    3.948979   -0.675998
    149          6           0       -5.646662   -0.526571   -1.475156
    150          1           0       -7.149116    0.776650   -0.983905
    151          6           0       -6.635677   -1.692311   -1.528779
    152          8           0       -4.451403   -0.701455   -1.746640
    153          6           0       -7.382143   -1.705182   -2.856581
    154          7           0       -7.571182   -1.634005   -0.424652
    155          1           0       -6.017581   -2.591657   -1.432320
    156          1           0       -8.000980   -0.808609   -2.956449
    157          1           0       -8.029375   -2.583951   -2.913768
    158          1           0       -6.669599   -1.740273   -3.684248
    159          6           0       -7.139867   -1.740660    0.838378
    160          1           0       -8.568893   -1.543066   -0.622278
    161          6           0       -8.192894   -1.628016    1.941613
    162          8           0       -5.952136   -1.941149    1.125522
    163          6           0       -8.916611   -2.955214    2.132521
    164          7           0       -9.145143   -0.578441    1.648323
    165          1           0       -7.626666   -1.371444    2.844084
    166          1           0       -9.492468   -3.210214    1.237586
    167          1           0       -9.599911   -2.891697    2.983558
    168          1           0       -8.193983   -3.751194    2.327977
    169          6           0       -8.744218    0.693263    1.526998
    170          1           0      -10.142216   -0.809753    1.617626
    171          6           0       -9.813281    1.719352    1.143900
    172          8           0       -7.571947    1.047444    1.709881
    173          8           0      -11.934927   -1.183555    2.081963
    174          6           0      -10.624004    2.153784    2.357806
    175          7           0      -10.677921    1.205952    0.100344
    176          1           0       -9.248394    2.570139    0.748313
    177          1           0      -12.590729   -0.535417    1.740252
    178          1           0      -12.147567   -1.312047    3.011305
    179          1           0      -11.189812    1.315883    2.774387
    180          1           0      -11.322527    2.946030    2.076182
    181          1           0       -9.955763    2.542678    3.129972
    182          6           0      -10.169272    0.934672   -1.109301
    183          1           0      -11.668776    1.042153    0.303254
    184          8           0      -13.423401    0.750400    0.937075
    185          6           0      -11.122404    0.391790   -2.172750
    186          8           0       -8.983379    1.148310   -1.394791
    187          1           0      -13.838385    1.460588    1.467579
    188          1           0      -14.039883    0.524296    0.205421
    189          6           0      -11.908081    1.530237   -2.814437
    190          7           0      -12.028221   -0.610727   -1.657686
    191          1           0      -10.465260   -0.071479   -2.916839
    192          8           0      -14.578700    2.749166    2.426612
    193          8           0      -14.806412    0.024207   -1.262971
    194          1           0      -12.516893    1.147823   -3.638354
    195          1           0      -12.567270    2.014301   -2.087264
    196          1           0      -11.221644    2.281166   -3.212795
    197          6           0      -11.572558   -1.785568   -1.188493
    198          1           0      -13.033434   -0.423328   -1.660994
    199          1           0      -14.077958    3.563636    2.544824
    200          1           0      -14.890196    2.510260    3.306422
    201          1           0      -15.412465   -0.743704   -1.246522
    202          1           0      -15.213725    0.718593   -1.821645
    203          6           0      -12.601340   -2.777229   -0.722715
    204          8           0      -10.358905   -2.037140   -1.130290
    205          8           0      -16.243505   -2.287578   -1.113407
    206          8           0      -15.890996    2.002324   -2.803508
    207          1           0      -13.622086   -2.504899   -0.998740
    208          1           0      -12.531077   -2.836697    0.367598
    209          1           0      -12.357634   -3.757791   -1.138248
    210          1           0      -16.616538   -2.729364   -1.883662
    211          1           0      -16.847921   -2.483131   -0.389524
    212          1           0      -15.414646    2.262167   -3.599595
    213          1           0      -16.142479    2.827649   -2.375075
 ---------------------------------------------------------------------
 Rotational constants (GHZ):           0.0536836           0.0045810           0.0045707
 Leave Link  202 at Mon Jan 31 11:20:09 2022, MaxMem=  8589934592 cpu:               0.0 elap:               0.0
 (Enter /share/apps/g16.b01_avx2/g16/l301.exe)
 Standard basis: 6-31+G(d,p) (6D, 7F)
 Ernie: Thresh=  0.10000D-02 Tol=  0.10000D-05 Strict=F.
 There are  2423 symmetry adapted cartesian basis functions of A   symmetry.
 There are  2423 symmetry adapted basis functions of A   symmetry.
  2423 basis functions,  3916 primitive gaussians,  2423 cartesian basis functions
   390 alpha electrons      390 beta electrons
       nuclear repulsion energy     22216.5199247217 Hartrees.
 IExCor= 1009 DFT=T Ex+Corr=PBE1PBE ExCW=0 ScaHFX=  0.250000
 ScaDFX=  0.750000  0.750000  1.000000  1.000000 ScalE2=  1.000000  1.000000
 IRadAn=  99590 IRanWt=     -1 IRanGd=            0 ICorTp=0 IEmpDi=131
 NAtoms=  213 NActive=  213 NUniq=  213 SFac= 1.00D+00 NAtFMM=   60 NAOKFM=T Big=T
 Integral buffers will be    131072 words long.
 Raffenetti 2 integral format.
 Two-electron integral symmetry is turned on.
 R6Disp:  Grimme-D3 Dispersion energy=       -0.2399138682 Hartrees.
 Nuclear repulsion after empirical dispersion term =    22216.2800108535 Hartrees.
 ------------------------------------------------------------------------------
 Polarizable Continuum Model (PCM)
 =================================
 Model                : C-PCM.
 Atomic radii         : UFF (Universal Force Field).
 Polarization charges : Total charges.
 Charge compensation  : None.
 Solution method      : On-the-fly selection.
 Cavity type          : Scaled VdW (van der Waals Surface) (Alpha=1.100).
 Cavity algorithm     : GePol (No added spheres)
                        Default sphere list used, NSphG=  213.
                        Lebedev-Laikov grids with approx.  5.0 points / Ang**2.
                        Smoothing algorithm: York/Karplus (Gamma=1.0000).
                        Polarization charges: spherical gaussians, with
                                              point-specific exponents (IZeta= 3).
                        Self-potential: point-specific (ISelfS= 7).
                        Self-field    : sphere-specific E.n sum rule (ISelfD= 2).
 1st derivatives      : Analytical E(r).r(x)/FMM algorithm (CHGder, D1EAlg=3).
                        Cavity 1st derivative terms included.
 Solvent              : Water, Eps=  78.355300 Eps(inf)=   1.777849
 ------------------------------------------------------------------------------
 GePol: Number of generator spheres                  =     213
 GePol: Total number of spheres                      =     213
 GePol: Number of exposed spheres                    =     213 (100.00%)
 GePol: Number of points                             =   12041
 GePol: Average weight of points                     =       0.12
 GePol: Minimum weight of points                     =   0.18D-11
 GePol: Maximum weight of points                     =    0.20577
 GePol: Number of points with low weight             =    1062
 GePol: Fraction of low-weight points (<1% of avg)   =       8.82%
 GePol: Cavity surface area                          =   1405.646 Ang**2
 GePol: Cavity volume                                =   1911.207 Ang**3
 Leave Link  301 at Mon Jan 31 11:20:09 2022, MaxMem=  8589934592 cpu:               1.3 elap:               0.1
 (Enter /share/apps/g16.b01_avx2/g16/l302.exe)
 NPDir=0 NMtPBC=     1 NCelOv=     1 NCel=       1 NClECP=     1 NCelD=      1
         NCelK=      1 NCelE2=     1 NClLst=     1 CellRange=     0.0.
 One-electron integrals computed using PRISM.
 One-electron integral symmetry used in STVInt
 NBasis=  2423 RedAO= T EigKep=  2.64D-06  NBF=  2423
 NBsUse=  2423 1.00D-06 EigRej= -1.00D+00 NBFU=  2423
 Precomputing XC quadrature grid using
 IXCGrd= 4 IRadAn=       99590 IRanWt=          -1 IRanGd=           0 AccXCQ= 0.00D+00.
 Generated NRdTot=       0 NPtTot=           0 NUsed=           0 NTot=          32
 NSgBfM=  1688  1655  1667  1674  1688 MxSgAt=   213 MxSgA2=   204.
 Leave Link  302 at Mon Jan 31 11:20:20 2022, MaxMem=  8589934592 cpu:             267.8 elap:              11.2
 (Enter /share/apps/g16.b01_avx2/g16/l303.exe)
 DipDrv:  MaxL=1.
 Leave Link  303 at Mon Jan 31 11:20:21 2022, MaxMem=  8589934592 cpu:               7.5 elap:               0.4
 (Enter /share/apps/g16.b01_avx2/g16/l401.exe)
 Initial guess from the checkpoint file:  "/scratch/Gau-640150.chk"
 B after Tr=     0.000000    0.000000   -0.000000
         Rot=    0.999982    0.005934    0.000122    0.000077 Ang=   0.68 deg.
 Guess basis will be translated and rotated to current coordinates.
 JPrj=2 DoOrth=T DoCkMO=T.
 Generating alternative initial guess.
 ExpMin= 4.38D-02 ExpMax= 5.48D+03 ExpMxC= 8.25D+02 IAcc=4 IRadAn=    199590 AccDes= 0.00D+00
 Harris functional with IExCor= 1009 and IRadAn=  199590 diagonalized for initial guess.
 HarFok:  IExCor= 1009 AccDes= 0.00D+00 IRadAn=    199590 IDoV= 1 UseB2=F ITyADJ=14
 ICtDFT=  3500011 ScaDFX=  1.000000  1.000000  1.000000  1.000000
 FoFCou: FMM=F IPFlag=           0 FMFlag=      100000 FMFlg1=        2001
         NFxFlg=           0 DoJE=T BraDBF=F KetDBF=T FulRan=T
         wScrn=  0.000000 ICntrl=       500 IOpCl=  0 I1Cent=   200000004 NGrid=           0
         NMat0=    1 NMatS0=      1 NMatT0=    0 NMatD0=    1 NMtDS0=    0 NMtDT0=    0
 Petite list used in FoFCou.
 Harris En= -5254.01614984492    
 Leave Link  401 at Mon Jan 31 11:21:14 2022, MaxMem=  8589934592 cpu:            1268.0 elap:              52.9
 (Enter /share/apps/g16.b01_avx2/g16/l502.exe)
 Integral symmetry usage will be decided dynamically.
 Closed shell SCF:
 Using DIIS extrapolation, IDIIS=  1040.
 NGot=  8589934592 LenX=  8578110019 LenY=  8572236667
 Requested convergence on RMS density matrix=1.00D-08 within 128 cycles.
 Requested convergence on MAX density matrix=1.00D-06.
 Requested convergence on             energy=1.00D-06.
 No special actions if energy rises.
 Fock matrices will be formed incrementally for  20 cycles.

 Cycle   1  Pass 1  IDiag  1:
 FoFJK:  IHMeth= 1 ICntrl=       0 DoSepK=F KAlg= 0 I1Cent=           0 FoldK=F
 IRaf= 510000000 NMat=       1 IRICut=       1 DoRegI=T DoRafI=F ISym2E= 0 IDoP0=0 IntGTp=1.
 FoFCou: FMM=T IPFlag=           0 FMFlag=      100000 FMFlg1=        2001
         NFxFlg=           0 DoJE=F BraDBF=F KetDBF=F FulRan=T
         wScrn=  0.000000 ICntrl=         0 IOpCl=  0 I1Cent=           0 NGrid=           0
         NMat0=    1 NMatS0=      1 NMatT0=    0 NMatD0=    1 NMtDS0=    0 NMtDT0=    0
 Symmetry not used in FoFCou.
 FMM levels:  10  Number of levels for PrismC:   9
 Inv3:  Mode=1 IEnd=   434957043.
 Iteration    1 A*A^-1 deviation from unit magnitude is 4.22D-15 for   4884.
 Iteration    1 A*A^-1 deviation from orthogonality  is 4.19D-15 for   7571   4107.
 Iteration    1 A^-1*A deviation from unit magnitude is 4.11D-15 for   9082.
 Iteration    1 A^-1*A deviation from orthogonality  is 2.89D-15 for  10597   1007.
 E= -5252.95982070411    
 DIIS: error= 1.01D-03 at cycle   1 NSaved=   1.
 NSaved= 1 IEnMin= 1 EnMin= -5252.95982070411     IErMin= 1 ErrMin= 1.01D-03
 ErrMax= 1.01D-03  0.00D+00 EMaxC= 1.00D-01 BMatC= 6.88D-03 BMatP= 6.88D-03
 IDIUse=3 WtCom= 9.90D-01 WtEn= 1.01D-02
 Coeff-Com:  0.100D+01
 Coeff-En:   0.100D+01
 Coeff:      0.100D+01
 Gap=     0.485 Goal=   None    Shift=    0.000
 GapD=    0.485 DampG=2.000 DampE=1.000 DampFc=2.0000 IDamp=-1.
 RMSDP=4.26D-04 MaxDP=1.16D-01              OVMax= 1.21D-02

 Cycle   2  Pass 1  IDiag  1:
 RMSU=  4.25D-04    CP:  9.98D-01
